default_name
  2694
  68.1020000  87.2180000 122.0860000  66.9190000  87.7770000 121.5090000
  66.1290000  88.6700000 122.2430000  64.9850000  89.2330000 121.6700000
  64.6050000  88.8990000 120.3650000  63.4640000  89.5080000 119.8200000
  62.6970000  89.0010000 118.7610000  62.4850000  87.6240000 118.6000000
  61.7860000  87.1410000 117.4960000  61.2750000  88.0280000 116.5350000
  60.6570000  87.5240000 115.3400000  61.4100000  89.4120000 116.7430000
  62.1120000  89.8920000 117.8520000  65.4060000  88.0090000 119.6260000
  66.5480000  87.4470000 120.2000000  68.7130000  86.5670000 121.5390000
  68.3690000  87.4410000 123.0710000  66.4060000  88.9360000 123.2540000
  64.3950000  89.9360000 122.2440000  62.8740000  86.9260000 119.3230000
  61.6450000  86.0720000 117.3920000  61.0170000  90.1210000 116.0240000
  62.2410000  90.9570000 117.9830000  65.1670000  87.7660000 118.6000000
  67.1520000  86.7640000 119.6190000  61.9910000  85.5990000 114.8850000
  60.9900000  86.3220000 114.6320000  59.5200000  88.0410000 114.6400000
  58.9410000  89.1210000 114.9220000  59.1470000  87.1500000 113.5520000
  58.0850000  87.2030000 112.6520000  57.9670000  86.1660000 111.7070000
  58.9180000  85.1180000 111.6720000  58.8050000  84.0980000 110.7260000
  59.6120000  84.0080000 109.5840000  59.7260000  82.7570000 108.9390000
  60.5160000  82.6090000 107.7850000  61.1750000  83.7330000 107.2950000
  62.0780000  83.8810000 106.1630000  62.3960000  82.9660000 105.3580000
  61.8940000  85.9020000 107.1680000  62.0840000  87.1080000 107.4780000
  61.0620000  84.9610000 107.9080000  60.2920000  85.1330000 109.0600000
  59.9690000  85.0860000 112.6050000  60.0490000  86.1080000 113.5410000
  57.3700000  88.0140000 112.6790000  57.1500000  86.1810000 111.0010000
  59.2330000  81.8910000 109.3520000  60.6190000  81.6450000 107.3000000
  60.2230000  86.1050000 109.5280000  60.6880000  84.2810000 112.6110000
  62.5290000  85.2360000 106.0700000  63.5120000  85.7730000 105.1690000
  64.6380000  85.0150000 104.8250000  65.6230000  85.5200000 103.9560000
  66.8350000  84.7720000 103.6910000  65.4280000  86.7960000 103.3980000
  64.3210000  87.5850000 103.7590000  64.1570000  88.9590000 103.2330000
  62.9950000  89.4340000 103.0990000  65.2980000  89.7720000 102.9140000
  65.1680000  91.1870000 102.5730000  64.9760000  92.0150000 103.8450000
  64.7370000  93.4630000 103.5160000  65.8190000  94.3380000 103.3380000
  65.5940000  95.6810000 103.0230000  64.2900000  96.1650000 102.8760000
  64.0980000  97.5130000 102.5740000  63.2010000  95.2910000 103.0340000
  61.8970000  95.7630000 102.8760000  63.4280000  93.9420000 103.3480000
  63.3640000  87.0620000 104.6420000  64.7580000  84.0520000 105.2860000
  66.1250000  87.1690000 102.6650000  66.2600000  89.3980000 103.0650000
  64.3130000  91.3340000 101.8800000  66.0880000  91.5200000 102.0500000
  64.1150000  91.6150000 104.4260000  65.8770000  91.9160000 104.4890000
  66.8370000  93.9830000 103.4440000  66.4350000  96.3500000 102.8980000
  63.1730000  97.9130000 102.4660000  61.0970000  95.1490000 102.9840000
  62.5870000  93.2710000 103.4740000  62.4990000  87.6540000 104.9170000
  66.2430000  82.5150000 104.2000000  67.1100000  83.4260000 104.1160000
  68.1510000  85.3360000 103.5360000  68.3870000  86.5290000 103.2100000
  69.1740000  84.3690000 103.9120000  70.5550000  84.5100000 104.0170000
  71.2800000  83.4750000 104.6350000  70.6050000  82.3550000 105.1800000
  71.2830000  81.4050000 105.9520000  71.7570000  81.6490000 107.2540000
  71.9600000  82.9650000 107.7550000  72.3410000  83.1770000 109.0870000
  72.5200000  82.0660000 109.9030000  72.7050000  81.9820000 111.3420000
  72.8670000  82.9680000 112.1090000  72.4370000  79.8820000 110.5650000
  72.2700000  78.6350000 110.5120000  72.3550000  80.7870000 109.4240000
  71.9870000  80.5450000 108.1010000  69.2220000  82.1990000 104.9690000
  68.5360000  83.2250000 104.3190000  71.0510000  85.3990000 103.6580000
  72.3510000  83.5700000 104.7480000  71.8200000  83.8310000 107.1330000
  72.4530000  84.1810000 109.4770000  71.8110000  79.5340000 107.7560000
  68.6910000  81.3430000 105.3690000  72.6400000  80.6190000 111.7810000
  72.1820000  80.1730000 113.0700000  72.5910000  78.9280000 113.5720000
  72.0560000  78.4370000 114.7690000  71.1000000  79.1770000 115.4740000
  70.5330000  78.6250000 116.6350000  69.2200000  78.8500000 117.0820000
  68.1710000  79.1410000 116.1920000  66.8810000  79.3790000 116.6740000
  66.6080000  79.3050000 118.0510000  65.2850000  79.5810000 118.5530000
  67.6490000  78.9760000 118.9320000  68.9400000  78.7390000 118.4490000
  70.7450000  80.4550000 115.0130000  71.2650000  80.9390000 113.8110000
  73.3090000  78.3310000 113.0250000  72.3560000  77.4620000 115.1330000
  68.3480000  79.1770000 115.1250000  66.1070000  79.6500000 115.9690000
  67.4570000  78.8870000 119.9920000  69.7280000  78.4780000 119.1400000
  70.0530000  81.0700000 115.5730000  70.9250000  81.8990000 113.4510000
  63.8830000  78.7370000 116.8220000  64.0460000  79.4620000 117.8400000
  64.9610000  80.4100000 119.6740000  65.7780000  80.7490000 120.5700000
  63.5590000  80.8060000 119.6180000  62.8160000  81.6230000 120.4640000
  61.4730000  81.8670000 120.1360000  60.8860000  81.2790000 118.9880000
  59.5240000  81.5170000 118.7590000  58.7910000  81.1820000 117.6130000
  57.4890000  80.6700000 117.7920000  56.7030000  80.2960000 116.6940000
  57.2300000  80.4820000 115.4210000  56.6170000  80.2930000 114.1140000
  55.4630000  79.8290000 113.9140000  58.6300000  81.2440000 113.7870000
  59.6110000  81.8070000 113.2370000  58.4680000  81.0470000 115.2270000
  59.2810000  81.4110000 116.3030000  61.6640000  80.4340000 118.1620000
  63.0020000  80.2340000 118.4990000  63.2610000  82.0630000 121.3440000
  60.8820000  82.5050000 120.7810000  57.0900000  80.5610000 118.7890000
  55.7070000  79.8920000 116.8330000  60.2420000  81.8820000 116.1340000
  61.2490000  79.9410000 117.2950000  57.4870000  80.7510000 113.0750000
  56.9930000  81.3220000 111.8600000  57.0920000  80.6120000 110.6580000
  56.5490000  81.1460000 109.4830000  55.9160000  82.3960000 109.4930000
  55.3860000  82.8960000 108.2920000  55.1040000  84.2470000 108.0450000
  55.9830000  85.2610000 108.4540000  55.6300000  86.6050000 108.3010000
  54.4200000  86.9530000 107.6870000  54.0150000  88.3290000 107.6320000
  53.5870000  85.9350000 107.1890000  53.9340000  84.5910000 107.3660000
  55.7940000  83.0920000 110.7120000  56.3340000  82.5570000 111.8840000
  57.5830000  79.6470000 110.6290000  56.6370000  80.5940000 108.5550000
  56.9270000  85.0070000 108.9080000  56.3020000  87.3760000 108.6560000
  52.6490000  86.1760000 106.7110000  53.2640000  83.8180000 107.0200000
  55.2680000  84.0370000 110.7670000  56.2310000  83.1010000 112.8150000
  54.5260000  89.0180000 109.8550000  54.0060000  89.2470000 108.7290000
  53.2380000  88.9790000 106.6180000  53.0280000  88.5040000 105.4710000
  52.7900000  90.2900000 107.0900000  52.0510000  91.2900000 106.4600000
  51.7830000  92.4710000 107.1820000  52.2360000  92.6240000 108.5120000
  51.9580000  93.8170000 109.1990000  51.9520000  93.9200000 110.5950000
  51.2070000  93.0080000 111.3820000  51.2640000  93.0610000 112.7840000
  52.0690000  94.0350000 113.3690000  52.4680000  94.2190000 114.7570000
  52.0360000  93.5450000 115.7320000  53.6120000  95.7130000 113.5170000
  54.4310000  96.6020000 113.1640000  52.7660000  94.9470000 112.6100000
  52.7170000  94.9260000 111.2180000  52.9890000  91.5910000 109.1140000
  53.2580000  90.4460000 108.3740000  51.7010000  91.1700000 105.4400000
  51.2180000  93.2670000 106.7160000  50.6100000  92.2430000 110.9030000
  50.7390000  92.3330000 113.3880000  53.3030000  95.6200000 110.6300000
  53.3790000  91.6840000 110.1180000  53.4430000  95.2640000 114.8670000
  54.4460000  95.3830000 115.8920000  54.9460000  94.2430000 116.5410000
  55.9970000  94.3440000 117.4520000  56.5490000  95.6020000 117.7610000
  57.6400000  95.7500000 118.6340000  58.0850000  94.8020000 119.5700000
  57.1900000  94.0360000 120.3350000  57.6710000  93.0870000 121.2430000
  59.0540000  92.9140000 121.4280000  59.5550000  91.9070000 122.3260000
  59.9420000  93.7150000 120.6940000  59.4620000  94.6520000 119.7750000
  56.0360000  96.7430000 117.1320000  54.9970000  96.6340000 116.1990000
  54.5460000  93.2650000 116.3150000  56.4000000  93.4360000 117.8800000
  56.1180000  94.1700000 120.2280000  56.9590000  92.4810000 121.7910000
  61.0130000  93.6160000 120.8310000  60.1590000  95.2570000 119.2110000
  56.4570000  97.7150000 117.3500000  54.6290000  97.5270000 115.7140000
  61.4190000  91.0810000 121.0940000  60.6500000  91.0170000 122.0880000
  58.9490000  91.4150000 123.5280000  57.9590000  91.9410000 124.0970000
  59.6740000  90.2430000 124.0080000  59.4640000  89.4330000 125.1230000
  60.3260000  88.3390000 125.3180000  61.3600000  88.0590000 124.3910000
  62.2060000  86.9680000 124.6380000  62.9180000  86.2710000 123.6530000
  62.3180000  85.9170000 122.4170000  63.0400000  85.1960000 121.4510000
  64.3640000  84.8680000 121.7310000  65.3580000  84.1520000 120.9410000
  65.1750000  83.7140000 119.7740000  66.2950000  84.6490000 122.9400000
  67.1240000  84.7790000 123.8780000  64.9390000  85.1830000 122.9400000
  64.2400000  85.8770000 123.9250000  61.5450000  88.9020000 123.2710000
  60.6990000  89.9950000 123.1230000  58.6590000  89.6400000 125.8150000
  60.1870000  87.6960000 126.1770000  61.2930000  86.1890000 122.2140000
  62.5800000  84.9030000 120.5170000  64.7080000  86.1130000 124.8710000
  62.3300000  88.7220000 122.5510000  66.5720000  83.9980000 121.6900000
  67.6940000  83.1510000 121.3660000  68.3760000  82.4520000 122.3770000
  69.4530000  81.6240000 122.0620000  69.8750000  81.4780000 120.7400000
  70.9520000  80.6180000 120.4770000  71.8570000  80.7190000 119.4120000
  72.5190000  79.5590000 118.9920000  73.4440000  79.6070000 117.9450000
  73.7300000  80.8220000 117.3060000  74.6780000  80.8670000 116.2250000
  73.0890000  81.9930000 117.7440000  72.1680000  81.9430000 118.7960000
  69.1800000  82.1480000 119.7200000  68.1080000  82.9910000 120.0330000
  68.0630000  82.5180000 123.4110000  69.9650000  81.0880000 122.8510000
  72.3080000  78.6140000 119.4750000  73.9140000  78.6890000 117.6160000
  73.3320000  82.9490000 117.3020000  71.7240000  82.8650000 119.1440000
  69.4500000  82.0100000 118.6800000  67.6150000  83.5240000 119.2330000
  73.7470000  82.5460000 114.8170000  74.6610000  81.7220000 115.0770000
  75.9250000  80.1700000 116.1350000  76.3610000  79.3740000 117.0080000
  76.6450000  80.5870000 114.9360000  77.9230000  80.2620000 114.4880000
  78.4030000  80.9110000 113.3360000  77.6000000  81.8480000 112.6470000
  78.1280000  82.4970000 111.5250000  77.3540000  82.8640000 110.4210000
  76.7060000  81.8730000 109.6460000  75.9710000  82.2250000 108.5000000
  75.8900000  83.5740000 108.1700000  75.1490000  84.2450000 107.1130000
  74.5210000  83.6620000 106.1900000  76.0590000  85.8370000 108.4140000
  76.3710000  86.9580000 108.9020000  76.4730000  84.5460000 108.9490000
  77.2340000  84.2230000 110.0710000  76.3060000  82.1540000 113.1240000
  75.8680000  81.5190000 114.2850000  78.5420000  79.5540000 115.0210000
  79.4000000  80.6940000 112.9740000  76.7860000  80.8310000 109.9250000
  75.4670000  81.4740000 107.9090000  77.6990000  84.9960000 110.6660000
  75.6930000  82.9040000 112.6400000  75.2120000  85.6680000 107.2690000
  74.0950000  86.5110000 106.9480000  73.7030000  86.6760000 105.6090000
  72.4860000  87.2990000 105.3030000  71.6280000  87.6980000 106.3370000
  70.3050000  88.0550000 106.0500000  69.2120000  87.3040000 106.5180000
  69.3790000  85.9900000 106.9870000  68.2960000  85.2580000 107.4580000
  67.0150000  85.8190000 107.4680000  65.9040000  85.0610000 107.9680000
  66.8330000  87.1270000 106.9860000  67.9250000  87.8620000 106.5050000
  72.0650000  87.6310000 107.6680000  73.2940000  87.0410000 107.9720000
  74.3130000  86.2720000 104.8110000  72.1700000  87.3860000 104.2730000
  70.3480000  85.5220000 106.9790000  68.4630000  84.2520000 107.8210000
  65.8420000  87.5640000 106.9670000  67.7760000  88.8660000 106.1310000
  71.4150000  87.9620000 108.4690000  73.5740000  86.9160000 109.0100000
  66.3660000  82.8960000 107.0820000  65.6970000  83.6500000 107.8380000
  64.9900000  85.4580000 108.9950000  64.9000000  86.6270000 109.4580000
  64.2210000  84.3020000 109.4560000  63.2560000  84.1800000 110.4520000
  62.6830000  82.9120000 110.6600000  63.0690000  81.8010000 109.8650000
  62.4370000  80.5600000 109.9980000  62.0510000  80.0080000 111.2230000
  62.8530000  80.1720000 112.3830000  62.4950000  79.5520000 113.5890000
  61.3320000  78.7890000 113.6130000  60.7120000  78.0350000 114.6940000
  61.2350000  77.8180000 115.8180000  59.3770000  77.8520000 112.8790000
  58.3980000  77.5950000 112.1310000  60.5350000  78.6510000 112.5000000
  60.8730000  79.2410000 111.2840000  64.0680000  81.9530000 108.8890000
  64.6360000  83.2120000 108.7240000  62.9360000  85.0370000 111.0350000
  61.9140000  82.7950000 111.4090000  63.7710000  80.7440000 112.3430000
  63.1080000  79.6680000 114.4710000  60.2430000  79.1150000 110.4140000
  64.3830000  81.1150000 108.2810000  59.4760000  77.4600000 114.2540000
  58.4400000  76.8820000 115.0730000  58.3140000  77.2510000 116.4190000
  57.2970000  76.7140000 117.2180000  57.1680000  77.1130000 118.5950000
  56.3730000  75.8250000 116.6520000  56.4840000  75.4340000 115.3040000
  55.4870000  74.5310000 114.6720000  55.4610000  74.4250000 113.4160000
  54.5370000  73.7920000 115.4560000  53.3120000  73.2520000 114.8700000
  52.3580000  74.3880000 114.4820000  51.1040000  73.8460000 113.8540000
  49.9650000  73.6050000 114.6340000  48.8050000  73.0860000 114.0510000
  48.7760000  72.7870000 112.6820000  47.6060000  72.2710000 112.1260000
  49.9190000  73.0110000 111.8970000  49.9000000  72.7130000 110.5360000
  51.0790000  73.5360000 112.4860000  57.5310000  75.9630000 114.5290000
  58.9680000  78.0060000 116.8320000  55.5680000  75.4550000 117.2710000
  54.7390000  73.5780000 116.4580000  53.5660000  72.6350000 113.9780000
  52.8130000  72.5920000 115.6140000  52.8560000  75.0730000 113.7640000
  52.1080000  74.9900000 115.3860000  49.9740000  73.8140000 115.6970000
  47.9300000  72.9070000 114.6630000  47.5390000  72.0250000 111.1460000
  50.7110000  72.8640000 109.9470000  51.9630000  73.6960000 111.8810000
  57.6460000  75.6510000 113.4990000  59.4490000  77.3100000 119.2700000
  58.2270000  77.5670000 119.4500000  55.9850000  77.6550000 119.1910000
  54.8310000  77.5600000 118.6960000  56.3250000  78.4250000 120.3810000
  55.5330000  79.2650000 121.1620000  56.1690000  80.0710000 122.1210000
  57.5760000  80.0370000 122.2650000  58.2050000  80.9200000 123.1470000
  58.2940000  82.2970000 122.8970000  58.5330000  83.1770000 123.9760000
  58.6060000  84.5670000 123.7680000  58.4770000  85.0420000 122.4660000
  58.4880000  86.4000000 121.9370000  58.5210000  87.4450000 122.6360000
  58.2360000  84.9880000 120.1880000  58.1800000  84.5250000 119.0180000
  58.2880000  84.1880000 121.4050000  58.1650000  82.8150000 121.5880000
  58.3510000  79.1640000 121.4790000  57.6930000  78.3740000 120.5370000
  54.4650000  79.3330000 121.0020000  55.5830000  80.7540000 122.7220000
  58.6440000  82.7810000 124.9810000  58.7620000  85.2490000 124.5950000
  57.9860000  82.1670000 120.7410000  59.4320000  79.1690000 121.5470000
  58.3610000  86.3790000 120.5070000  58.2690000  87.5100000 119.6170000
  58.9020000  88.7210000 119.9330000  58.7540000  89.8430000 119.1130000
  57.9920000  89.7740000 117.9440000  57.8970000  90.9330000 117.1530000
  57.0120000  91.1530000 116.0870000  57.4650000  91.9020000 114.9970000
  56.6380000  92.1210000 113.8940000  55.3370000  91.6040000 113.8790000
  54.4990000  91.8070000 112.7410000  54.8640000  90.8850000 114.9850000
  55.6880000  90.6780000 116.0950000  57.4100000  88.5430000 117.5840000
  57.5310000  87.4310000 118.4220000  59.5290000  88.7970000 120.8100000
  59.2470000  90.7710000 119.3720000  58.4740000  92.2940000 114.9990000
  57.0140000  92.6860000 113.0510000  53.5570000  91.3630000 112.6920000
  54.8200000  92.3900000 111.9350000  53.8490000  90.5100000 114.9960000
  55.2890000  90.1630000 116.9620000  56.8800000  88.4240000 116.6500000
  57.0250000  86.5190000 118.1370000 104.7990000  58.7330000 119.2040000
 105.0050000  60.1180000 118.9160000 106.0610000  60.8160000 119.5140000
 106.2750000  62.1640000 119.2130000 105.4290000  62.8380000 118.3270000
 105.6960000  64.1850000 118.0330000 104.7620000  65.1150000 117.5550000
 103.4230000  65.0940000 117.9710000 102.4990000  65.9790000 117.4220000
 102.8970000  66.9120000 116.4510000 101.9220000  67.7430000 115.8020000
 104.2570000  66.9930000 116.1000000 105.1810000  66.1020000 116.6540000
 104.3740000  62.1330000 117.7190000 104.1610000  60.7860000 118.0200000
 104.0260000  58.1960000 118.7450000 105.4100000  58.2370000 119.8910000
 106.7230000  60.3110000 120.2050000 107.1080000  62.6840000 119.6700000
 103.0950000  64.3820000 118.7110000 101.4690000  65.9340000 117.7540000
 104.5960000  67.7090000 115.3620000 106.2170000  66.1500000 116.3490000
 103.7300000  62.6110000 116.9940000 103.3450000  60.2590000 117.5460000
 100.0660000  66.2550000 115.6200000 100.5630000  67.4060000 115.4920000
 102.0450000  69.1140000 115.4040000 103.1080000  69.7820000 115.4720000
 100.7730000  69.6100000 114.9000000 100.3960000  70.8780000 114.4650000
  99.0650000  71.0650000 114.0470000  98.1530000  69.9820000 114.0560000
  96.8380000  70.1680000 113.6290000  96.3560000  69.7310000 112.3880000
  94.9630000  69.5700000 112.2260000  94.4230000  69.1420000 111.0000000
  95.3020000  68.8870000 109.9520000  95.0490000  68.4030000 108.6030000
  93.9140000  68.1650000 108.1130000  97.2860000  68.6720000 108.8310000
  98.5260000  68.6370000 108.6130000  96.6620000  69.0510000 110.0940000
  97.2250000  69.4660000 111.3010000  98.5620000  68.7170000 114.5150000
  99.8740000  68.5660000 114.9430000 101.1030000  71.6960000 114.4510000
  98.7460000  72.0400000 113.7100000  94.3000000  69.7420000 113.0600000
  93.3550000  69.0010000 110.8810000  98.2960000  69.5820000 111.3920000
  97.8740000  67.8870000 114.5540000  96.2830000  68.2710000 107.8900000
  96.4840000  67.7200000 106.5780000  95.7280000  66.6200000 106.1550000
  95.9120000  66.0520000 104.8810000  95.2010000  64.8500000 104.4930000
  96.8470000  66.6460000 104.0150000  97.6400000  67.7290000 104.4350000
  98.6790000  68.3030000 103.5520000  98.9860000  69.5220000 103.6710000
  99.3730000  67.4870000 102.5940000 100.5260000  67.9830000 101.8460000
 101.7750000  67.9490000 102.7290000 102.9560000  68.5520000 102.0180000
 103.7580000  67.7600000 101.1820000 104.8490000  68.3240000 100.5140000
 105.1490000  69.6820000 100.6670000 106.2510000  70.2120000  99.9980000
 104.3390000  70.4850000 101.4880000 104.6230000  71.8440000 101.6360000
 103.2420000  69.9190000 102.1570000  97.4470000  68.2640000 105.7180000
  95.0350000  66.1860000 106.8520000  96.9440000  66.2810000 103.0050000
  99.1540000  66.4700000 102.5240000 100.3310000  69.0150000 101.4880000
 100.6850000  67.3400000 100.9560000 101.5820000  68.5070000 103.6730000
 101.9990000  66.8980000 103.0120000 103.5420000  66.7070000 101.0460000
 105.4680000  67.7030000  99.8800000 106.5150000  71.1870000 100.0840000
 104.0510000  72.4410000 102.2220000 102.6220000  70.5380000 102.7920000
  98.0410000  69.1070000 106.0490000  93.2950000  64.8170000 105.9330000
  94.1540000  64.2070000 105.2410000  95.7420000  63.7730000 103.7050000
  96.7220000  63.8800000 102.9220000  95.0720000  62.5180000 104.0180000
  95.3340000  61.2210000 103.5820000  94.6780000  60.1600000 104.2310000
  93.8230000  60.4150000 105.3320000  93.3030000  59.3690000 106.1030000
  94.0720000  58.5910000 106.9870000  95.4890000  58.5080000 106.8910000
  96.2360000  57.8010000 107.8440000  95.5510000  57.1790000 108.8820000
  96.0560000  56.5670000 110.0990000  97.2740000  56.3800000 110.3650000
  93.8080000  56.6380000 110.2520000  92.6330000  56.5690000 110.7010000
  94.1800000  57.2250000 108.9710000  93.4110000  57.9120000 108.0310000
  93.5060000  61.7420000 105.6820000  94.1440000  62.7730000 104.9940000
  96.0390000  61.0360000 102.7860000  94.8800000  59.1440000 103.9270000
  96.0270000  58.9900000 106.0940000  97.3170000  57.7770000 107.7920000
  92.3360000  57.9820000 108.1470000  92.8450000  61.9550000 106.5140000
  94.9760000  56.2340000 110.9820000  95.0480000  56.1970000 112.4180000
  94.1330000  55.4260000 113.1510000  94.1210000  55.4790000 114.5500000
  95.0150000  56.3100000 115.2340000  94.9310000  56.3920000 116.6340000
  95.2280000  57.5340000 117.3990000  95.0740000  58.8340000 116.8840000
  95.3970000  59.9460000 117.6670000  95.8560000  59.7830000 118.9850000
  96.2210000  60.9260000 119.7830000  95.9710000  58.4860000 119.5070000
  95.6480000  57.3730000 118.7240000  95.9800000  57.0260000 114.5080000
  95.9830000  56.9860000 113.1120000  93.4170000  54.7980000 112.6350000
  93.3920000  54.9020000 115.1040000  94.6960000  58.9890000 115.8820000
  95.3160000  60.9300000 117.2260000  96.2960000  58.3360000 120.5280000
  95.7340000  56.3810000 119.1440000  96.7190000  57.6280000 115.0190000
  96.6970000  57.5970000 112.5800000  94.6700000  62.5840000 119.0580000
  95.7480000  62.2720000 119.6330000  97.4020000  61.0610000 120.5810000
  98.1200000  60.0990000 120.9590000  97.6500000  62.4670000 120.8780000
  98.6840000  63.0720000 121.5840000  98.6900000  64.4730000 121.6780000
  97.6590000  65.2450000 121.0880000  97.6960000  66.6340000 121.2760000
  96.8890000  67.5920000 120.6500000  96.4050000  68.6580000 121.4360000
  95.5760000  69.6440000 120.8840000  95.2770000  69.5610000 119.5280000
  94.5470000  70.4820000 118.6690000  93.9680000  71.5310000 119.0570000
  95.4220000  68.8790000 117.3550000  95.7850000  68.2310000 116.3390000
  95.8000000  68.5690000 118.7330000  96.6130000  67.5620000 119.2610000
  96.6090000  64.5960000 120.3960000  96.6470000  63.2060000 120.2970000
  99.4650000  62.4820000 122.0420000  99.4910000  64.9600000 122.2190000
  96.6720000  68.7170000 122.4800000  95.1950000  70.4570000 121.4910000
  97.0400000  66.8030000 118.6160000  95.7870000  65.1430000 119.9580000
  94.6140000  70.0620000 117.3040000  94.6240000  70.9920000 116.2160000
  93.5040000  71.1150000 115.3850000  93.4930000  72.0720000 114.3640000
  94.6010000  72.9040000 114.1520000  94.5490000  73.8500000 113.1160000
  95.6700000  74.4480000 112.5250000  96.8190000  73.7030000 112.2210000
  97.9660000  74.3380000 111.7370000  97.9620000  75.7190000 111.5000000
  99.1750000  76.3810000 111.1100000  96.7790000  76.4470000 111.7120000
  95.6400000  75.8100000 112.2180000  95.7120000  72.7950000 115.0110000
  95.7210000  71.8410000 116.0320000  92.6410000  70.4770000 115.5290000
  92.6260000  72.1550000 113.7190000  96.8270000  72.6360000 112.3780000
  98.8580000  73.7540000 111.5430000  96.7490000  77.5120000 111.5360000
  94.7520000  76.3890000 112.4190000  96.5650000  73.4540000 114.9090000
  96.5810000  71.7700000 116.6870000 100.7190000  75.3830000 112.6250000
 100.4500000  76.2450000 111.7450000  99.3180000  77.5320000 110.2680000
  98.4160000  77.9740000 109.5090000 100.6770000  78.0670000 110.3740000
 101.2950000  79.1380000 109.7300000 102.6450000  79.4060000 110.0370000
 103.3410000  78.6210000 110.9840000 104.6870000  78.9100000 111.2590000
 105.3330000  78.5260000 112.4400000 104.7600000  78.8150000 113.7030000
 105.3670000  78.3600000 114.8840000 106.5430000  77.6230000 114.7740000
 107.2870000  76.8780000 115.7790000 107.0270000  76.8640000 117.0130000
 108.2410000  76.4610000 113.7800000 108.9690000  75.9710000 112.8780000
 107.1250000  77.3710000 113.5520000 106.5520000  77.8220000 112.3650000
 102.6820000  77.5390000 111.6100000 101.3590000  77.2820000 111.2750000
 100.7590000  79.7420000 109.0060000 103.1530000  80.2270000 109.5480000
 103.8310000  79.3660000 113.7610000 104.9050000  78.5330000 115.8470000
 106.9940000  77.5810000 111.4070000 103.1900000  76.8970000 112.3160000
 108.3520000  76.1360000 115.1710000 108.9320000  74.9190000 115.6740000
 108.1770000  74.0390000 116.4660000 108.6990000  72.8070000 116.8590000
 110.0100000  72.4440000 116.4960000 110.5630000  71.1950000 116.8260000
 110.0940000  70.3190000 117.8200000 109.6360000  70.7840000 119.0630000
 109.1570000  69.8830000 120.0200000 109.1630000  68.5010000 119.7630000
 108.6280000  67.5720000 120.7250000 109.6640000  68.0400000 118.5370000
 110.1280000  68.9410000 117.5740000 110.7730000  73.3300000 115.7250000
 110.2360000  74.5550000 115.3120000 107.1660000  74.2900000 116.7500000
 108.0630000  72.1280000 117.4110000 109.6450000  71.8440000 119.2940000
 108.7720000  70.2710000 120.9560000 109.6980000  66.9780000 118.3200000
 110.5050000  68.5720000 116.6300000 111.7780000  73.0610000 115.4290000
 110.8380000  75.2160000 114.7030000 107.5060000  66.0290000 119.2980000
 107.7900000  66.4450000 120.4510000 108.6120000  67.6900000 122.1530000
 109.2550000  68.5520000 122.8060000 107.7760000  66.6440000 122.7320000
 107.4610000  66.3550000 124.0580000 106.5930000  65.2790000 124.3130000
 106.0380000  64.5290000 123.2480000 105.1920000  63.4530000 123.5530000
 104.2100000  62.9410000 122.6940000 103.3580000  63.7970000 121.9490000
 102.3620000  63.2650000 121.1120000 102.2600000  61.8800000 121.0120000
 101.3570000  61.0430000 120.2330000 100.4820000  61.4730000 119.4340000
 102.6640000  59.6760000 121.4740000 103.2090000  58.6480000 121.9580000
 103.0640000  61.0480000 121.7560000 104.0440000  61.5470000 122.6110000
 106.3790000  64.8490000 121.9130000 107.2660000  65.8960000 121.6940000
 107.8720000  66.9450000 124.8670000 106.3350000  65.0320000 125.3340000
 103.4590000  64.8680000 122.0320000 101.6950000  63.9130000 120.5620000
 104.6650000  60.8770000 123.1890000 105.9810000  64.2910000 121.0780000
 101.5920000  59.6570000 120.5180000 100.7620000  58.5380000 120.1460000
 100.5660000  57.4660000 121.0350000  99.7540000  56.3910000 120.6790000
  99.1250000  56.3560000 119.4330000  98.3040000  55.2590000 119.1340000
  98.0350000  54.7430000 117.8580000  96.8490000  54.0230000 117.6710000
  96.5400000  53.4740000 116.4230000  97.4190000  53.6300000 115.3410000
  97.0960000  53.0690000 114.0570000  98.6230000  54.3280000 115.5340000
  98.9330000  54.8720000 116.7850000  99.2900000  57.4360000 118.5510000
 100.1150000  58.5110000 118.8990000 101.0140000  57.4690000 122.0200000
  99.6080000  55.5760000 121.3760000  96.1610000  53.8950000 118.4960000
  95.6000000  52.9520000 116.2960000  99.3400000  54.4160000 114.7300000
  99.8860000  55.3630000 116.9190000  98.7690000  57.4620000 117.6010000
 100.2550000  59.3110000 118.1860000  98.0150000  54.6790000 112.5650000
  97.4230000  53.5880000 112.7640000  96.5030000  51.7930000 113.7920000
  96.1480000  50.9740000 114.6800000  96.4590000  51.5520000 112.3540000
  96.0670000  50.4240000 111.6350000  96.2380000  50.4390000 110.2390000
  96.7710000  51.5760000 109.5880000  96.9570000  51.5370000 108.2010000
  96.8060000  52.6570000 107.3800000  95.5480000  53.2990000 107.2770000
  95.3700000  54.3920000 106.4110000  96.4700000  54.8270000 105.6790000
  96.6180000  55.9610000 104.7800000  95.6770000  56.7070000 104.3980000
  98.6510000  55.0350000 105.0390000  99.8910000  54.8170000 104.9620000
  97.7060000  54.2410000 105.8140000  97.9050000  53.1360000 106.6400000
  97.1560000  52.7060000 110.3440000  97.0040000  52.6520000 111.7290000
  95.6710000  49.5510000 112.1340000  95.9610000  49.5710000 109.6550000
  94.7100000  52.9400000 107.8580000  94.4150000  54.8920000 106.3340000
  98.8790000  52.6760000 106.7260000  97.6110000  53.5680000 109.8720000
  97.9880000  56.1320000 104.3950000  98.5590000  57.4350000 104.2060000
  98.1550000  58.2280000 103.1180000  98.5250000  59.5770000 103.0550000
  99.2430000  60.1550000 104.1110000  99.3690000  61.5460000 104.1940000
  98.7950000  62.2860000 105.2420000  97.7870000  61.7370000 106.0540000
  97.2310000  62.4700000 107.0950000  97.6660000  63.7740000 107.3500000
  97.0960000  64.5210000 108.4350000  98.6610000  64.3410000 106.5350000
  99.2160000  63.6020000 105.4810000  99.7370000  59.3410000 105.1410000
  99.3970000  57.9880000 105.1880000  97.5100000  57.8130000 102.3550000
  98.1760000  60.1930000 102.2370000  97.4190000  60.7410000 105.8760000
  96.4650000  62.0120000 107.7060000  98.9890000  65.3590000 106.7080000
  99.9780000  64.0460000 104.8540000 100.3130000  59.7790000 105.9470000
  99.7110000  57.3950000 106.0380000  94.7920000  63.9290000 108.2640000
  95.7380000  64.4790000 108.8890000  97.8050000  65.1510000 109.5070000
  99.0530000  65.3270000 109.5300000  96.8780000  65.5110000 110.5790000
  97.0960000  66.0990000 111.8220000  95.9790000  66.3270000 112.6470000
  94.6720000  65.9840000 112.2100000  93.5470000  66.2960000 112.9800000
  93.5010000  66.1900000 114.3740000  94.1620000  65.1300000 115.0480000
  94.0480000  64.9910000 116.4380000  93.2810000  65.9250000 117.1300000
  92.9770000  66.0410000 118.5490000  93.2570000  65.1780000 119.4230000
  92.0040000  67.7880000 117.4960000  91.4080000  68.8740000 117.2740000
  92.6630000  66.9710000 116.4850000  92.7440000  67.1260000 115.1040000
  94.4920000  65.3650000 110.9630000  95.6170000  65.1270000 110.1810000
  98.0910000  66.3920000 112.1390000  96.1180000  66.8040000 113.6050000
  94.7300000  64.3940000 114.4950000  94.5430000  64.1810000 116.9540000
  92.2440000  67.9470000 114.6080000  93.5040000  65.0870000 110.6180000
  92.1960000  67.2160000 118.7960000  91.9220000  67.8320000 120.0690000
  92.7840000  67.6260000 121.1550000  92.5410000  68.2390000 122.3910000
  93.4420000  68.0320000 123.4930000  91.4420000  69.0980000 122.5300000
  90.5580000  69.3140000 121.4550000  89.4150000  70.2580000 121.5670000
  88.8200000  70.6310000 120.5200000  88.9860000  70.7740000 122.8370000
  88.1790000  71.9870000 122.9410000  89.0030000  73.2140000 122.5340000
  88.1760000  74.4680000 122.6120000  88.1890000  75.2580000 123.7690000
  87.4070000  76.4140000 123.8440000  86.5890000  76.7850000 122.7690000
  85.8200000  77.9440000 122.8710000  86.5590000  75.9900000 121.6110000
  85.7470000  76.3490000 120.5380000  87.3490000  74.8320000 121.5380000
  90.8050000  68.6640000 120.2330000  93.6810000  67.0390000 121.0230000
  91.2950000  69.5980000 123.4760000  89.1990000  70.2480000 123.7140000
  87.2770000  71.8920000 122.2930000  87.8350000  72.1080000 123.9920000
  89.3800000  73.0930000 121.4970000  89.8960000  73.3000000 123.1960000
  88.8010000  74.9770000 124.6180000  87.4270000  77.0180000 124.7430000
  85.2030000  78.2470000 122.1280000  85.7060000  75.7930000 119.6920000
  87.3140000  74.2150000 120.6510000  90.1190000  68.7990000 119.4070000
  94.0390000  65.7380000 123.2230000  94.2660000  66.8780000 123.7110000
  94.0970000  69.0700000 124.2320000  93.7380000  70.2770000 124.2330000
  95.2950000  68.5510000 124.8790000  96.3210000  69.2270000 125.5380000
  97.4810000  68.5050000 125.8700000  97.5990000  67.1390000 125.5210000
  98.7980000  66.4630000 125.7600000  99.9660000  66.7200000 125.0290000
 101.2150000  66.3500000 125.5770000 102.4120000  66.6120000 124.8830000
 102.3230000  67.2080000 123.6280000 103.3580000  67.6170000 122.6870000
 104.5950000  67.5840000 122.9180000 101.3570000  68.0920000 121.7470000
 100.4660000  68.3990000 120.9110000 101.1080000  67.5310000 123.0690000
  99.9150000  67.3260000 123.7530000  96.5390000  66.4760000 124.8750000
  95.4000000  67.2150000 124.5600000  96.2500000  70.2860000 125.7440000
  98.3060000  69.0100000 126.3560000 101.2570000  65.8740000 126.5520000
 103.3730000  66.3560000 125.3090000  98.9750000  67.6170000 123.3060000
  96.6420000  65.4450000 124.5580000 102.7660000  68.1510000 121.4940000
 103.4440000  68.7190000 120.3550000 104.7200000  68.2680000 119.9860000
 105.4140000  68.8650000 118.9300000 104.8380000  69.9090000 118.2000000
 105.5820000  70.4550000 117.1390000 105.3030000  71.6390000 116.4400000
 105.5880000  71.6810000 115.0720000 105.2980000  72.8210000 114.3210000
 104.7320000  73.9440000 114.9390000 104.4140000  75.1010000 114.1680000
 104.4800000  73.9220000 116.3180000 104.7840000  72.7840000 117.0710000
 103.5300000  70.3200000 118.5210000 102.8510000  69.7450000 119.5980000
 105.1780000  67.4390000 120.5060000 106.3990000  68.5080000 118.6600000
 106.0140000  70.8120000 114.5870000 105.5070000  72.8270000 113.2590000
 103.9250000  75.9120000 114.6070000 104.6500000  75.1510000 113.1510000
 104.0750000  74.7960000 116.8100000 104.6290000  72.8020000 118.1440000
 103.0170000  71.0680000 117.9330000 101.8690000  70.1260000 119.8450000
 107.3620000 115.8820000  75.0570000 108.4060000 115.0650000  75.5940000
 109.6990000 115.1300000  75.0620000 110.7230000 114.3480000  75.6020000
 110.4680000 113.4780000  76.6680000 111.5310000 112.7300000  77.1970000
 111.4070000 111.5350000  77.9210000 110.4160000 110.5910000  77.6160000
 110.2640000 109.4490000  78.3990000 111.1070000 109.2240000  79.4990000
 110.8740000 108.1080000  80.3730000 112.1570000 110.1250000  79.7500000
 112.3050000 111.2690000  78.9620000 109.1700000 113.4220000  77.2080000
 108.1470000 114.2040000  76.6670000 106.3970000 115.8580000  75.4620000
 107.5450000 116.5070000  74.2400000 109.9140000 115.7940000  74.2360000
 111.7220000 114.4230000  75.1920000 109.7550000 110.7480000  76.7790000
 109.4840000 108.7410000  78.1470000 112.8290000 109.9720000  80.5850000
 113.0930000 111.9750000  79.1870000 108.9480000 112.7950000  78.0610000
 107.1540000 114.1480000  77.0920000 108.4910000 108.0120000  80.4070000
 109.6110000 107.5240000  80.7180000 111.8380000 107.2690000  81.0200000
 113.0800000 107.4640000  81.0010000 111.1730000 106.1740000  81.7110000
 111.6910000 105.0890000  82.4140000 110.7840000 104.1640000  82.9640000
 109.3900000 104.3540000  82.8160000 108.4930000 103.4410000  83.3740000
 107.7570000 103.6910000  84.5400000 106.5930000 102.9270000  84.7770000
 105.8200000 103.1300000  85.9340000 106.2400000 104.1000000  86.8390000
 105.6370000 104.5560000  88.0840000 104.5930000 104.0830000  88.6060000
 107.5100000 105.7800000  87.7360000 108.4030000 106.6610000  87.8450000
 107.3790000 104.8440000  86.6250000 108.1590000 104.6700000  85.4820000
 108.8990000 105.4520000  82.0880000 109.8160000 106.3370000  81.5360000
 112.7580000 104.9590000  82.5320000 111.1610000 103.3120000  83.5100000
 106.2670000 102.2020000  84.0480000 104.9170000 102.5560000  86.1080000
 109.0470000 105.2690000  85.3310000 107.8400000 105.5990000  81.9420000
 106.4270000 105.6020000  88.6570000 106.1240000 106.3960000  89.8160000
 104.8050000 106.7860000  90.0740000 104.4800000 107.5740000  91.1930000
 103.1300000 108.0620000  91.3940000 105.5110000 107.9260000  92.0820000
 106.8470000 107.5730000  91.8210000 107.9420000 108.0120000  92.7140000
 108.9810000 107.3000000  92.8120000 107.8610000 109.2520000  93.4350000
 109.0000000 109.7940000  94.1720000 109.9780000 110.4620000  93.2040000
 111.2100000 110.9380000  93.9230000 111.2350000 112.2070000  94.5220000
 112.3780000 112.6440000  95.1990000 113.5040000 111.8200000  95.2910000
 114.6330000 112.2900000  95.9610000 113.4810000 110.5410000  94.7100000
 114.5960000 109.7070000  94.8080000 112.3320000 110.1020000  94.0320000
 107.1440000 106.8020000  90.6870000 104.0480000 106.5100000  89.3620000
 105.2740000 108.4570000  92.9910000 107.0230000 109.8630000  93.3220000
 109.5050000 108.9850000  94.7400000 108.6350000 110.5440000  94.9040000
 110.2650000 109.7410000  92.4060000 109.4760000 111.3180000  92.7040000
 110.3720000 112.8600000  94.4660000 112.3900000 113.6270000  95.6480000
 115.4770000 111.7350000  96.0470000 114.6000000 108.7800000  94.3980000
 112.3180000 109.1170000  93.5810000 108.1670000 106.5110000  90.4810000
 101.7780000 106.5500000  90.1310000 101.9740000 107.6950000  90.6200000
 102.7740000 109.3580000  91.9110000 103.5250000 110.0780000  92.6190000
 101.4700000 109.7710000  91.4130000 100.7840000 110.9740000  91.5640000
  99.6410000 111.1880000  90.7740000  99.2430000 110.2240000  89.8150000
  98.2200000 110.4920000  88.8980000  98.3500000 111.3870000  87.8210000
  99.3530000 112.3950000  87.7870000  99.5180000 113.2100000  86.6580000
  98.6680000 113.0080000  85.5760000  98.7310000 113.5430000  84.2260000
  99.5420000 114.4240000  83.8330000  97.1000000 111.9870000  84.2680000
  96.2030000 111.1790000  83.9090000  97.6750000 112.0580000  85.6060000
  97.4810000 111.2410000  86.7200000  99.9000000 108.9790000  89.7580000
 101.0080000 108.7830000  90.5820000 101.1360000 111.7300000  92.2500000
  99.1040000 112.1230000  90.8570000 100.0180000 112.5550000  88.6170000
 100.3100000 113.9460000  86.6180000  96.7280000 110.4630000  86.7050000
  99.6020000 108.2260000  89.0380000  97.7640000 112.9020000  83.3830000
  97.8950000 112.6900000  81.9670000  96.7530000 112.5070000  81.1720000
  96.8770000 112.1820000  79.8160000  98.1420000 112.0260000  79.2390000
  98.2320000 111.6330000  77.8940000  99.2580000 110.8430000  77.3460000
  99.9590000 109.8970000  78.1150000 100.9870000 109.1430000  77.5420000
 101.3180000 109.3010000  76.1850000 102.3980000 108.5480000  75.6000000
 100.5900000 110.2180000  75.4120000  99.5610000 110.9720000  75.9860000
  99.2860000 112.2820000  80.0130000  99.1640000 112.5900000  81.3690000
  95.7660000 112.5980000  81.6100000  95.9900000 112.0150000  79.2190000
  99.7060000 109.7360000  79.1550000 101.5410000 108.4600000  78.1710000
 100.8070000 110.3370000  74.3590000  99.0050000 111.6680000  75.3740000
 100.2730000 112.2250000  79.5720000 100.0640000 112.7190000  81.9520000
 102.2700000 106.4680000  76.7560000 102.9160000 107.2870000  76.0470000
 103.4300000 109.0640000  74.7530000 103.3650000 110.1620000  74.1380000
 104.5600000 108.1440000  74.7180000 105.7840000 108.2400000  74.0640000
 106.7140000 107.2040000  74.2460000 106.4050000 106.0830000  75.0550000
 107.3580000 105.0590000  75.1400000 107.3360000 103.9560000  76.0030000
 107.7270000 102.7050000  75.4820000 107.7120000 101.5530000  76.2800000
 107.3380000 101.6880000  77.6130000 107.3340000 100.7090000  78.6900000
 107.6140000  99.4880000  78.5620000 106.8460000 102.7120000  79.5920000
 106.6220000 103.6240000  80.4300000 107.0240000 102.9120000  78.1550000
 107.0100000 104.0730000  77.3780000 105.1410000 106.0060000  75.6870000
 104.2510000 107.0630000  75.5090000 106.0150000 109.0910000  73.4400000
 107.6740000 107.2660000  73.7490000 108.0400000 102.6300000  74.4520000
 108.0030000 100.5910000  75.8760000 106.7880000 105.0340000  77.8260000
 104.8520000 105.1560000  76.2880000 107.0120000 101.3300000  79.9380000
 107.5530000 100.8750000  81.1820000 106.7340000 100.2180000  82.1070000
 107.2820000  99.7170000  83.2930000 108.6450000  99.8780000  83.5750000
 109.1540000  99.3610000  84.7770000 110.3470000  99.7770000  85.3840000
 110.6990000 101.1330000  85.4430000 111.9450000 101.5190000  85.9500000
 112.8310000 100.5570000  86.4520000 114.1490000 100.9470000  86.8670000
 112.4350000  99.2080000  86.4810000 111.1970000  98.8260000  85.9520000
 109.4690000 100.5150000  82.6260000 108.9220000 101.0130000  81.4410000
 105.6770000 100.0880000  81.9100000 106.6400000  99.2150000  84.0090000
 110.0170000 101.8850000  85.0800000 112.2170000 102.5660000  85.9540000
 113.0990000  98.4480000  86.8640000 110.9230000  97.7820000  85.9390000
 110.5350000 100.6140000  82.7870000 109.5670000 101.4980000  80.7180000
 114.7610000 102.3840000  85.0680000 115.0620000 101.7550000  86.1180000
 114.9530000 100.3690000  87.9040000 114.5110000  99.6070000  88.8030000
 116.3320000 100.8490000  87.7970000 117.4540000 100.6010000  88.5870000
 118.6660000 101.2290000  88.2320000 118.7390000 102.0690000  87.0980000
 119.9600000 102.6860000  86.7790000 120.2760000 103.1540000  85.4990000
 120.1250000 102.3170000  84.3660000 120.3650000 102.8110000  83.0740000
 120.7570000 104.1410000  82.9450000 120.8980000 104.9710000  81.7580000
 120.7810000 104.5650000  80.5690000 121.2000000 106.2980000  83.5550000
 121.3620000 107.3120000  84.2830000 120.9430000 104.9490000  84.0440000
 120.7250000 104.4810000  85.3380000 117.5790000 102.3020000  86.3270000
 116.3920000 101.6880000  86.7090000 117.3960000  99.9530000  89.4550000
 119.5510000 101.0610000  88.8310000 119.7930000 101.2950000  84.4900000
 120.1990000 102.1910000  82.2030000 120.8310000 105.1370000  86.1920000
 117.5880000 102.9620000  85.4700000 121.1680000 106.3310000  82.1230000
 120.8410000 107.4980000  81.3470000 119.7520000 107.4870000  80.4610000
 119.3640000 108.6480000  79.7940000 120.0840000 109.8440000  79.9740000
 119.7030000 111.0510000  79.3630000 118.8460000 111.1850000  78.2580000
 118.8940000 110.2980000  77.1690000 118.0110000 110.4510000  76.0960000
 117.0900000 111.5120000  76.0760000 116.1470000 111.6480000  74.9970000
 117.0780000 112.4210000  77.1450000 117.9500000 112.2590000  78.2260000
 121.1850000 109.8510000  80.8400000 121.5560000 108.6890000  81.5270000
 119.1770000 106.5850000  80.3120000 118.4790000 108.6170000  79.1720000
 119.6140000 109.4860000  77.1510000 118.0420000 109.7300000  75.2870000
 116.3910000 113.2600000  77.1460000 117.9240000 112.9640000  79.0460000
 121.7420000 110.7650000  80.9970000 122.3990000 108.7230000  82.2030000
 114.1910000 112.3210000  76.1790000 114.7580000 111.9750000  75.1100000
 116.3130000 111.2670000  73.6250000 117.4070000 110.9300000  73.1050000
 115.0390000 111.3670000  72.9210000 114.7060000 111.1070000  71.5930000
 113.3660000 111.2710000  71.2020000 112.3820000 111.6660000  72.1400000
 111.0620000 111.8350000  71.6990000 109.9280000 111.7360000  72.5160000
 109.7970000 110.7020000  73.4790000 108.6410000 110.6030000  74.2720000
 107.6480000 111.5660000  74.1070000 106.3650000 111.7380000  74.7760000
 105.9340000 111.0110000  75.7110000 106.5370000 113.3450000  73.1920000
 106.3060000 114.3540000  72.4750000 107.7580000 112.5510000  73.1530000
 108.8820000 112.6590000  72.3370000 112.7540000 111.9220000  73.4810000
 114.0930000 111.7840000  73.8300000 115.4590000 110.7850000  70.8850000
 113.0820000 111.0790000  70.1760000 110.5820000 109.9710000  73.5990000
 108.5260000 109.8030000  74.9900000 108.9490000 113.4390000  71.5920000
 112.0300000 112.2340000  74.2200000 105.6520000 112.8460000  74.2080000
 104.2680000 113.1920000  74.4180000 103.4800000 113.6680000  73.3560000
 102.1390000 113.9900000  73.5570000 101.5560000 113.8510000  74.8180000
 100.1980000 114.1720000  74.9610000  99.5680000 114.6250000  76.1290000
  98.1910000 114.4110000  76.2640000  97.5100000 114.8560000  77.4010000
  98.1970000 115.5340000  78.4200000  97.4950000 115.9860000  79.5910000
  99.5730000 115.7760000  78.2730000 100.2510000 115.3340000  77.1310000
 102.3270000 113.3470000  75.8780000 103.6760000 113.0360000  75.6830000
 103.8880000 113.7640000  72.3570000 101.5440000 114.3490000  72.7280000
  97.6480000 113.8890000  75.4880000  96.4530000 114.6450000  77.4980000
 100.1130000 116.3420000  79.0190000 101.2990000 115.5730000  77.0210000
 101.8860000 113.1760000  76.8540000 104.2570000 112.6860000  76.5260000
  99.1380000 115.7120000  81.2910000  97.9910000 116.0800000  80.9300000
  96.1940000 116.5800000  79.6470000  95.4530000 116.7680000  78.6470000
  95.9020000 117.0130000  81.0100000  94.8170000 117.7210000  81.5230000
  94.8570000 118.1000000  82.8760000  95.9570000 117.7500000  83.6930000
  95.9730000 118.1760000  85.0260000  96.5370000 117.4240000  86.0600000
  96.0060000 116.1530000  86.3850000  96.5280000 115.4120000  87.4600000
  97.5890000 115.9620000  88.1740000  98.3810000 115.4110000  89.2620000
  98.1370000 114.3270000  89.8560000  99.3190000 117.3660000  88.6680000
 100.1020000 118.3530000  88.6010000  98.1420000 117.1720000  87.8290000
  97.6250000 117.9430000  86.7900000  97.0400000 117.0290000  83.1440000
  96.9890000 116.6930000  81.7920000  93.9800000 117.9990000  80.8960000
  94.0370000 118.6680000  83.2990000  95.1820000 115.7500000  85.8140000
  96.1340000 114.4370000  87.7090000  98.0600000 118.8990000  86.5390000
  97.9150000 116.7930000  83.7380000  99.4950000 116.2600000  89.5640000
 100.7660000 115.7230000  89.9580000 100.9070000 115.0970000  91.2080000
 102.0650000 114.3680000  91.5050000 103.0580000 114.2080000  90.5290000
 104.0720000 113.2600000  90.7100000 104.2000000 112.1360000  89.8750000
 103.1390000 111.7140000  89.0550000 103.2770000 110.6080000  88.2240000
 104.4770000 109.8920000  88.1950000 104.6150000 108.7590000  87.3260000
 105.5390000 110.2940000  89.0240000 105.3970000 111.4050000  89.8660000
 102.9680000 114.9190000  89.3230000 101.8270000 115.6740000  89.0400000
 100.0950000 115.1280000  91.9250000 102.1490000 113.8540000  92.4530000
 102.1970000 112.2340000  89.0630000 102.4430000 110.3190000  87.5980000
 106.4660000 109.7330000  89.0280000 106.2170000 111.7060000  90.5050000
 103.7450000 114.8180000  88.5750000 101.7340000 116.1420000  88.0680000
 102.4840000 107.7150000  87.5600000 103.5990000 107.8100000  86.9820000
 105.6370000 108.5510000  86.3460000 106.6920000 109.2370000  86.2580000
 105.2520000 107.4680000  85.4420000 105.8890000 106.9360000  84.3240000
 105.2580000 105.8740000  83.6510000 104.0210000 105.3540000  84.1140000
 103.4340000 104.2360000  83.5110000 103.4280000 104.0060000  82.1330000
 103.2770000 105.0770000  81.2140000 103.1980000 104.8270000  79.8360000
 103.2830000 103.5070000  79.4030000 103.2310000 102.9410000  78.0630000
 102.9370000 103.5790000  77.0180000 103.5730000 101.2390000  79.5120000
 103.8220000 100.1010000  79.9880000 103.4600000 102.4670000  80.2880000
 103.5250000 102.6830000  81.6620000 103.3910000 105.9340000  85.2270000
 104.0250000 107.0010000  85.8550000 106.8520000 107.3110000  83.9930000
 105.7430000 105.4260000  82.7960000 103.1820000 106.0960000  81.5660000
 103.0740000 105.6400000  79.1350000 103.6540000 101.8550000  82.3470000
 102.4420000 105.5590000  85.5870000 103.4330000 101.5230000  78.1140000
 103.7210000 100.6420000  77.0120000 104.3100000 101.1400000  75.8410000
 104.6170000 100.2890000  74.7730000 105.2360000 100.8100000  73.5830000
 104.3640000  98.9150000  74.8920000 103.7670000  98.3920000  76.0540000
 103.5360000  96.9330000  76.2200000 103.2590000  96.4790000  77.3640000
 103.6410000  96.0230000  75.1140000 103.8380000  94.5900000  75.3140000
 105.2340000  94.3160000  75.8860000 105.4410000  92.8450000  76.1200000
 106.0510000  92.0480000  75.1430000 106.2270000  90.6780000  75.3580000
 105.7810000  90.0850000  76.5460000 105.9710000  88.7170000  76.7340000
 105.1540000  90.8760000  77.5250000 104.7050000  90.2950000  78.7080000
 104.9840000  92.2520000  77.3070000 103.4390000  99.2710000  77.1030000
 104.5900000 102.1820000  75.7840000 104.6490000  98.2660000  74.0760000
 103.5180000  96.3710000  74.1370000 103.0530000  94.1970000  76.0000000
 103.7340000  94.0670000  74.3370000 105.3640000  94.8580000  76.8460000
 106.0070000  94.7070000  75.1850000 106.3860000  92.4850000  74.2100000
 106.7030000  90.0720000  74.5960000 105.6540000  88.2390000  77.5690000
 104.2490000  90.8420000  79.4300000 104.4890000  92.8550000  78.0560000
 102.9550000  98.8870000  77.9910000 104.1590000 102.9280000  73.3520000
 105.1130000 102.1480000  73.0790000 106.4610000 100.3370000  73.0130000
 106.9830000  99.2220000  73.2760000 107.0660000 101.3710000  72.1830000
 108.3270000 101.4200000  71.5900000 108.7480000 102.6400000  71.0330000
 107.9150000 103.7820000  71.0980000 108.3900000 105.0130000  70.6360000
 109.3840000 105.7360000  71.3090000 110.1180000 106.7160000  70.6020000
 111.1400000 107.4460000  71.2370000 111.3760000 107.2040000  72.5870000
 112.3550000 107.7720000  73.5050000 113.2790000 108.5600000  73.1750000
 111.0980000 106.3010000  74.6750000 110.5720000 105.6600000  75.6230000
 110.6360000 106.2830000  73.2930000 109.6530000 105.5150000  72.6780000
 106.6380000 103.6990000  71.6830000 106.2450000 102.4760000  72.2260000
 108.9830000 100.5610000  71.6010000 109.7330000 102.7160000  70.5910000
 109.9060000 106.8960000  69.5520000 111.7240000 108.1780000  70.6940000
 109.1060000 104.7760000  73.2470000 106.0170000 104.5810000  71.7830000
 112.1770000 107.2310000  74.8220000 112.9790000 107.4880000  75.9940000
 113.6160000 108.7260000  76.1640000 114.4550000 108.9560000  77.2590000
 114.6550000 107.9630000  78.2220000 115.4970000 108.2640000  79.3070000
 116.0160000 107.3570000  80.2440000 116.1610000 107.7860000  81.5670000
 116.6390000 106.9140000  82.5470000 116.9940000 105.6030000  82.2070000
 117.4600000 104.7040000  83.2130000 116.8880000 105.1790000  80.8750000
 116.4220000 106.0580000  79.8920000 113.9650000 106.7430000  78.0930000
 113.1540000 106.5020000  76.9800000 113.4520000 109.5280000  75.4580000
 114.9410000 109.9160000  77.3750000 115.8770000 108.7950000  81.8370000
 116.7240000 107.2580000  83.5690000 117.6560000 103.7060000  82.9810000
 117.5980000 105.0250000  84.1980000 117.1910000 104.1790000  80.5970000
 116.3930000 105.7290000  78.8590000 114.0290000 105.9790000  78.8540000
 112.6830000 105.5330000  76.8920000  98.3270000  89.1560000  89.2470000
  96.9720000  89.4660000  89.5840000  95.9290000  88.6370000  89.1540000
  94.6080000  88.9290000  89.5030000  94.3070000  90.0610000  90.2690000
  92.9700000  90.3010000  90.6190000  92.4310000  91.5480000  90.9720000
  92.8680000  92.7350000  90.3680000  92.3740000  93.9660000  90.7920000
  91.4240000  94.0340000  91.8250000  91.0040000  95.3070000  92.3390000
  90.9210000  92.8390000  92.3680000  91.4200000  91.6060000  91.9390000
  95.3580000  90.8870000  90.7080000  96.6780000  90.5940000  90.3590000
  99.1160000  89.7560000  89.5820000  98.5490000  88.3290000  88.6480000
  96.1430000  87.7600000  88.5580000  93.8140000  88.2680000  89.1780000
  93.6000000  92.7060000  89.5770000  92.7360000  94.8690000  90.3150000
  90.1810000  92.8590000  93.1580000  91.0520000  90.6950000  92.3900000
  95.1660000  91.7430000  91.3410000  97.4740000  91.2400000  90.7030000
  93.0300000  96.5630000  92.2300000  91.7900000  96.5030000  92.4460000
  89.6980000  95.7050000  92.7720000  88.7130000  94.9290000  92.8680000
  89.6820000  97.1240000  93.0960000  88.6390000  97.9580000  93.4920000
  88.9290000  99.3170000  93.7170000  90.2490000  99.8020000  93.5610000
  90.5350000 101.1480000  93.7970000  91.1840000 101.6120000  94.9490000
  91.8050000 102.8790000  94.9070000  92.4640000 103.3980000  96.0360000
  92.4790000 102.6280000  97.1950000  93.1030000 102.8770000  98.4870000
  93.7330000 103.9200000  98.8050000  92.0970000 100.8520000  98.5860000
  91.7330000  99.7120000  98.9800000  91.8670000 101.3970000  97.2530000
  91.2140000 100.8540000  96.1450000  91.2770000  98.9370000  93.1460000
  90.9590000  97.6060000  92.9080000  87.6360000  97.5750000  93.6190000
  88.1370000  99.9850000  94.0190000  91.8100000 103.4460000  93.9890000
  92.9570000 104.3620000  95.9980000  90.7460000  99.8820000  96.2110000
  92.2840000  99.2950000  92.9950000  92.8640000 101.7750000  99.3670000
  93.3990000 101.5730000 100.6860000  94.7110000 101.9650000 100.9790000
  95.2650000 101.7680000 102.2570000  96.6560000 102.0770000 102.5210000
  94.4510000 101.2080000 103.2570000  93.1430000 100.7770000 102.9720000
  92.3140000 100.1150000 104.0040000  91.0570000 100.2230000 103.9490000
  92.9130000  99.3180000 105.0390000  92.1120000  98.5060000 105.9520000
  91.6760000  97.2150000 105.2570000  90.7640000  96.4090000 106.1400000
  91.2960000  95.5030000 107.0700000  90.4460000  94.7610000 107.8960000
  89.0600000  94.9180000 107.8090000  88.2380000  94.1540000 108.6370000
  88.5190000  95.8360000 106.8930000  87.1360000  96.0080000 106.8080000
  89.3730000  96.5820000 106.0650000  92.6220000 100.9700000 101.6830000
  95.3050000 102.3740000 100.1830000  94.8260000 101.1260000 104.2660000
  93.9480000  99.1900000 105.0610000  91.2270000  99.0820000 106.2950000
  92.7200000  98.2580000 106.8460000  91.1550000  97.4600000 104.3050000
  92.5750000  96.6170000 104.9930000  92.3670000  95.3680000 107.1570000
  90.8660000  94.0580000 108.6030000  87.2270000  94.2240000 108.6050000
  86.7250000  96.6660000 106.1550000  88.9540000  97.2860000 105.3560000
  91.6110000 100.6560000 101.4540000  97.2260000 103.6570000 100.8220000
  97.5610000 102.7410000 101.6210000  97.5410000 101.3140000 103.3620000
  97.1660000 100.5370000 104.2790000  98.9240000 101.4760000 102.9370000
 100.0860000 100.8540000 103.3850000 101.2620000 101.0250000 102.6320000
 101.2360000 101.7650000 101.4240000 102.3440000 101.7990000 100.5710000
 102.7680000 100.7050000  99.7950000 102.3830000  99.3680000 100.0920000
 102.7430000  98.3090000  99.2450000 103.4900000  98.6040000  98.1100000
 103.8240000  97.7690000  96.9680000 103.5810000  96.5360000  96.8780000
 104.4900000  99.8700000  96.4950000 104.9150000 100.8850000  95.8810000
 103.8940000  99.8870000  97.8260000 103.5600000 100.9580000  98.6560000
 100.0690000 102.4610000 101.0530000  98.9300000 102.3010000 101.8410000
 100.0780000 100.2380000 104.2720000 102.1720000 100.5340000 102.9470000
 101.8020000  99.1310000 100.9640000 102.4120000  97.3000000  99.4510000
 103.8420000 101.9680000  98.3880000 100.0350000 103.0400000 100.1380000
 104.4390000  98.5500000  95.9350000 104.3600000  98.2840000  94.5240000
 105.3430000  98.7830000  93.6550000 105.2090000  98.6300000  92.2700000
 104.0880000  97.9860000  91.7340000 103.9510000  97.9100000  90.3380000
 102.7300000  97.9170000  89.6420000 101.5890000  98.5640000  90.1480000
 100.3860000  98.5340000  89.4370000 100.3060000  97.8790000  88.1960000
  99.0580000  97.8190000  87.4770000 101.4560000  97.2680000  87.6760000
 102.6610000  97.2980000  88.3880000 103.1410000  97.4200000  92.6020000
 103.2650000  97.5860000  93.9830000 106.2030000  99.3080000  94.0530000
 105.9590000  99.0440000  91.6080000 101.6310000  99.0990000  91.0880000
  99.5140000  98.9980000  89.8770000 101.4260000  96.7820000  86.7110000
 103.5390000  96.8300000  87.9690000 102.2980000  96.8670000  92.2120000
 102.4870000  97.1940000  94.6220000  98.0550000  99.9160000  87.9980000
  97.9560000  98.7320000  87.5780000  98.4910000  96.6590000  86.8590000
  99.1370000  95.6160000  86.5730000  97.0670000  96.8600000  86.6230000
  96.1110000  96.0070000  86.0820000  94.7840000  96.4600000  86.0110000
  94.4340000  97.7580000  86.4580000  93.1020000  98.1650000  86.2990000
  92.5060000  99.3210000  86.8170000  91.6120000 100.0290000  85.9860000
  90.9920000 101.2050000  86.4290000  91.2540000 101.6320000  87.7260000
  90.6810000 102.7340000  88.4860000  89.8600000 103.5760000  88.0350000
  91.9840000 101.5510000  89.8870000  92.5380000 101.1270000  90.9350000
  92.0650000 100.9150000  88.5730000  92.7120000  99.7500000  88.1520000
  95.4350000  98.6100000  86.9820000  96.7380000  98.1200000  87.0640000
  96.3800000  95.0210000  85.7320000  94.0270000  95.8060000  85.5980000
  91.4030000  99.6630000  84.9930000  90.3140000 101.7540000  85.7860000
  93.3260000  99.1800000  88.8400000  95.2190000  99.6170000  87.3060000
  91.1400000 102.7090000  89.8400000  90.3290000 103.1530000  90.9320000
  90.6350000 104.3470000  91.5950000  89.8010000 104.8110000  92.6190000
  88.6650000 104.0850000  93.0000000  87.8560000 104.5860000  94.0330000
  86.9590000 103.8180000  94.7880000  87.3010000 102.5350000  95.2420000
  86.3540000 101.7410000  95.8950000  85.0690000 102.2390000  96.1510000
  84.0700000 101.3810000  96.7210000  84.7610000 103.5610000  95.7820000
  85.7050000 104.3430000  95.1090000  88.3470000 102.9000000  92.3080000
  89.1780000 102.4380000  91.2850000  91.5120000 104.9200000  91.3190000
  90.0490000 105.7330000  93.1340000  88.2930000 102.1490000  95.0710000
  86.6210000 100.7390000  96.2060000  83.7790000 103.9690000  95.9690000
  85.4410000 105.3400000  94.7900000  87.4500000 102.3390000  92.5410000
  88.9200000 101.5270000  90.7590000  84.4050000  99.4080000  95.4280000
  83.7370000 100.0640000  96.2730000  82.9910000 101.7440000  97.5920000
  82.9200000 102.8330000  98.2200000  82.0320000 100.6420000  97.6910000
  80.8590000 100.5090000  98.4330000  80.1410000  99.2990000  98.3270000
  80.5920000  98.2640000  97.4780000  79.8570000  97.0690000  97.4030000
  79.9330000  96.1840000  96.3220000  79.7700000  96.6510000  94.9940000
  79.9250000  95.7780000  93.9060000  80.2370000  94.4480000  94.1720000
  80.6310000  93.3730000  93.2730000  80.6520000  93.4500000  92.0140000
  80.8330000  92.6030000  95.3820000  81.1110000  91.8760000  96.3710000
  80.3590000  93.9790000  95.4610000  80.1970000  94.8200000  96.5600000
  81.7890000  98.4330000  96.7470000  82.4900000  99.6250000  96.8850000
  80.5130000 101.3060000  99.0810000  79.2320000  99.1650000  98.8970000
  79.5550000  97.6950000  94.8110000  79.8540000  96.1420000  92.8880000
  80.3390000  94.4510000  97.5680000  82.1820000  97.6520000  96.1110000
  81.0160000  92.2090000  94.0160000  81.9390000  91.1940000  93.5830000
  82.9670000  91.5000000  92.6770000  83.9300000  90.5480000  92.3440000
  83.8620000  89.2500000  92.8860000  84.8350000  88.2720000  92.6200000
  85.7530000  88.2860000  91.5560000  85.3890000  88.7080000  90.2660000
  86.3360000  88.7280000  89.2370000  87.6510000  88.2920000  89.4710000
  88.6420000  88.3530000  88.4280000  87.9970000  87.8280000  90.7490000
  87.0550000  87.8240000  91.7820000  82.8240000  88.9360000  93.7720000
  81.8730000  89.9030000  94.1230000  83.0470000  92.4900000  92.2540000
  84.7460000  90.8420000  91.6970000  84.3720000  89.0250000  90.0560000
  86.0390000  89.0950000  88.2610000  88.9990000  87.4680000  90.9520000
  87.3370000  87.4710000  92.7650000  82.7640000  87.9470000  94.2050000
  81.0900000  89.6420000  94.8220000  90.5550000  89.0670000  89.6560000
  89.9980000  88.7920000  88.5620000  88.4470000  88.2220000  87.0150000
  87.3830000  87.8270000  86.4740000  89.6730000  88.5750000  86.3060000
  89.9650000  88.6000000  84.9440000  91.2500000  89.0150000  84.5500000
  92.2060000  89.4200000  85.5130000  93.4790000  89.8080000  85.0730000
  94.3400000  90.6640000  85.7740000  93.8620000  91.8430000  86.4020000
  94.7440000  92.7020000  87.0800000  96.0880000  92.3450000  87.1420000
  97.2230000  93.0080000  87.7710000  97.1580000  94.0730000  88.4420000
  98.0020000  91.1680000  86.7100000  98.7600000  90.2520000  86.2930000
  96.5600000  91.2190000  86.5090000  95.7130000  90.3610000  85.8110000
  91.8760000  89.3820000  86.8880000  90.6100000  88.9350000  87.2480000
  89.2240000  88.3090000  84.2120000  91.5040000  89.0400000  83.4990000
  92.8140000  92.0970000  86.3510000  94.3880000  93.6140000  87.5380000
  96.1030000  89.4820000  85.3180000  92.5840000  89.6750000  87.6490000
  98.4330000  92.2870000  87.5010000  99.7850000  92.7330000  87.7330000
 100.8030000  92.4400000  86.8090000 102.1070000  92.8840000  87.0280000
 102.4250000  93.6210000  88.1700000 103.7490000  94.0570000  88.3310000
 104.4030000  94.3010000  89.5470000 105.4850000  95.1890000  89.5510000
 106.1820000  95.4560000  90.7320000 105.8120000  94.8290000  91.9320000
 106.5280000  95.1090000  93.1480000 104.7450000  93.9150000  91.9250000
 104.0520000  93.6460000  90.7400000 101.4090000  93.9450000  89.0830000
 100.1020000  93.4900000  88.8740000 100.5920000  91.8950000  85.8980000
 102.8790000  92.6550000  86.3040000 105.7810000  95.6810000  88.6340000
 106.9910000  96.1750000  90.7160000 104.4760000  93.3800000  92.8250000
 103.2660000  92.9040000  90.7520000 101.6150000  94.5620000  89.9490000
  99.3470000  93.7210000  89.6120000 104.8010000  94.9860000  94.7810000
 106.0110000  95.1460000  94.4820000 107.9420000  95.2680000  93.3060000
 108.7750000  95.2090000  92.3630000 108.2730000  95.4160000  94.7190000
 109.5090000  95.4960000  95.3560000 109.5260000  95.5230000  96.7620000
 108.3200000  95.4930000  97.5000000 108.3830000  95.4870000  98.8980000
 107.4290000  96.1110000  99.7070000 107.2460000  97.5130000  99.6380000
 106.3300000  98.1590000 100.4860000 105.6030000  97.3740000 101.3750000
 104.5420000  97.7340000 102.3030000 104.1740000  98.9110000 102.5580000
 104.7260000  95.4920000 102.3250000 104.5270000  94.2730000 102.5750000
 105.7380000  96.0060000 101.4100000 106.6610000  95.3430000 100.6040000
 107.0820000  95.4150000  96.8250000 107.0960000  95.3580000  95.4320000
 110.4320000  95.5080000  94.7920000 110.4720000  95.5660000  97.2870000
 107.8250000  98.0990000  98.9370000 106.1790000  99.2280000 100.4330000
 106.7670000  94.2680000 100.6520000 106.1500000  95.3410000  97.3700000
 103.9520000  96.5640000 102.8840000 102.5490000  96.4930000 103.1730000
 102.0030000  97.2770000 104.2030000 100.6140000  97.3930000 104.3400000
  99.7670000  96.7800000 103.4070000  98.4100000  97.1190000 103.3640000
  97.8370000  97.7670000 102.2550000  98.6370000  98.4170000 101.3000000
  98.0640000  99.0460000 100.2010000  96.6760000  99.0450000 100.0300000
  96.0940000  99.6870000  98.8860000  95.8650000  98.4130000 100.9890000
  96.4430000  97.7850000 102.1000000 100.3060000  95.9120000 102.4450000
 101.6900000  95.7680000 102.3300000 102.6550000  97.8390000 104.8600000
 100.2010000  98.0320000 105.1090000  99.7070000  98.4490000 101.4080000
  98.7110000  99.5280000  99.4790000  94.7870000  98.4260000 100.8800000
  95.8120000  97.3040000 102.8370000  99.6530000  95.4160000 101.7370000
 102.0910000  95.1660000 101.5240000  97.4230000 101.6590000  98.7160000
  96.5540000 100.8800000  98.2420000  95.1990000  99.0970000  97.9380000
  94.6200000  97.9880000  98.0960000  95.0990000  99.9430000  96.7500000
  94.3960000  99.7750000  95.5590000  94.4980000 100.7860000  94.5870000
  95.2800000 101.9470000  94.8260000  95.3100000 103.0020000  93.9070000
  95.3370000 102.8280000  92.5200000  96.0750000 101.7680000  91.9310000
  96.1570000 101.6470000  90.5370000  95.4880000 102.5850000  89.7570000
  95.3900000 102.7230000  88.3100000  96.0550000 102.0590000  87.4730000
  94.1310000 104.3550000  89.2400000  93.3190000 105.3040000  89.3910000
  94.7470000 103.5970000  90.3220000  94.6600000 103.7530000  91.7030000
  96.0000000 102.0700000  96.0250000  95.9020000 101.0420000  96.9560000
  93.7700000  98.9040000  95.3930000  93.9430000 100.6920000  93.6660000
  96.6150000 101.0620000  92.5490000  96.7240000 100.8450000  90.0860000
  94.0830000 104.5600000  92.1350000  96.6100000 102.9430000  96.2200000
  94.5260000 103.8150000  87.9730000  93.9560000 104.1110000  86.6830000
  93.7980000 103.0970000  85.7290000  93.2230000 103.3680000  84.4810000
  93.0510000 102.3150000  83.5160000  92.7690000 104.6640000  84.1980000
  92.9250000 105.7010000  85.1380000  92.4060000 107.0690000  84.8780000
  92.3170000 107.8860000  85.8340000  91.9820000 107.4780000  83.5680000
  91.1000000 108.6250000  83.3680000  89.6970000 108.3210000  83.9070000
  88.7850000 109.5030000  83.7300000  87.9640000 109.6060000  82.5990000
  87.1280000 110.7140000  82.4310000  87.1160000 111.7410000  83.3830000
  86.2730000 112.8350000  83.1900000  87.9480000 111.6530000  84.5120000
  87.9450000 112.6710000  85.4630000  88.7820000 110.5360000  84.6800000
  93.5310000 105.4120000  86.3730000  94.0620000 102.0800000  85.9790000
  92.2870000 104.8460000  83.2480000  92.3520000 106.9880000  82.7220000
  91.5270000 109.5180000  83.8780000  91.0330000 108.8490000  82.2800000
  89.7520000 108.0640000  84.9860000  89.2800000 107.4310000  83.3820000
  87.9730000 108.8300000  81.8440000  86.4970000 110.7810000  81.5540000
  86.2380000 113.6090000  83.8410000  88.5350000 112.6330000  86.2860000
  89.4300000 110.4770000  85.5440000  93.6820000 106.2040000  87.0940000
  95.0320000 101.0230000  83.8340000  93.8530000 101.1300000  83.4000000
  91.8120000 101.9560000  82.8950000  90.7930000 102.6960000  82.8610000
  91.8640000 100.5800000  82.4180000  90.8480000  99.7640000  81.9240000
  91.1240000  98.3960000  81.7510000  92.3930000  97.8730000  82.0930000
  92.6180000  96.4960000  82.0180000  92.0360000  95.5880000  82.9120000
  91.9380000  94.2270000  82.5440000  91.3390000  93.2890000  83.4060000
  90.8860000  93.7350000  84.6440000  90.2180000  93.0290000  85.7310000
  89.8260000  91.8340000  85.6800000  90.4900000  95.1780000  86.3810000
  90.5470000  96.2210000  87.0850000  91.0180000  95.0500000  85.0280000
  91.5620000  96.0050000  84.1770000  93.4080000  98.7230000  82.5690000
  93.1080000 100.0750000  82.7290000  89.8610000 100.1590000  81.7260000
  90.3460000  97.7330000  81.3960000  92.3120000  93.9010000  81.5780000
  91.2370000  92.2510000  83.1190000  91.6270000  97.0380000  84.4890000
  94.3650000  98.3220000  82.8820000  89.9850000  93.9170000  86.8340000
  89.2970000  93.6230000  88.0680000  89.3230000  92.3290000  88.6090000
  88.5980000  92.0200000  89.7630000  87.8510000  93.0020000  90.4180000
  87.1580000  92.6300000  91.5840000  86.1780000  93.3790000  92.2530000
  86.1300000  93.3040000  93.6490000  85.1990000  94.0560000  94.3680000
  84.2900000  94.8800000  93.6920000  83.3530000  95.6670000  94.4270000
  84.3080000  94.9280000  92.2910000  85.2320000  94.1650000  91.5720000
  87.8760000  94.3190000  89.9200000  88.5740000  94.6190000  88.7470000
  89.9210000  91.5560000  88.1480000  88.6270000  91.0160000  90.1660000
  86.8380000  92.6780000  94.1770000  85.1910000  94.0010000  95.4480000
  82.7240000  96.3370000  93.9350000  83.2930000  95.5950000  95.4680000
  83.5880000  95.5360000  91.7600000  85.1990000  94.1760000  90.4880000
  87.3780000  95.1250000  90.4390000  88.5250000  95.6310000  88.3680000
  75.6830000  88.9580000 110.8750000  75.3760000  90.1660000 111.5760000
  74.6830000  91.2000000 110.9340000  74.3640000  92.3710000 111.6270000
  74.7480000  92.5340000 112.9630000  74.3840000  93.7150000 113.6290000
  75.0230000  94.2430000 114.7600000  76.4100000  94.1400000 114.9360000
  77.0100000  94.6030000 116.1050000  76.2350000  95.1870000 117.1190000
  76.8370000  95.5560000 118.3690000  74.8580000  95.3710000 116.9040000
  74.2600000  94.9050000 115.7300000  75.4350000  91.4900000 113.6090000
  75.7530000  90.3210000 112.9160000  76.1800000  88.1700000 111.3520000
  75.4260000  88.8490000 109.8680000  74.3820000  91.0920000 109.9010000
  73.8120000  93.1530000 111.1220000  77.0230000  93.6900000 114.1720000
  78.0830000  94.5020000 116.2180000  74.2350000  95.8280000 117.6640000
  73.1940000  95.0190000 115.5910000  75.7060000  91.5640000 114.6540000
  76.2840000  89.5280000 113.4260000  78.4290000  93.8050000 118.6720000
  77.9290000  94.9040000 119.0330000  76.5590000  96.6980000 119.1880000
  75.6310000  97.5190000 118.9740000  77.4900000  96.7590000 120.3050000
  77.6470000  97.7080000 121.3120000  78.6680000  97.5050000 122.2590000
  79.4910000  96.3550000 122.1880000  80.4950000  96.1510000 123.1360000
  80.3930000  95.2280000 124.1870000  81.5800000  94.7850000 124.8100000
  81.5370000  93.8660000 125.8730000  80.2910000  93.4130000 126.2960000
  79.9360000  92.4490000 127.3270000  80.7480000  91.8630000 128.0900000
  78.0170000  93.1600000 126.3580000  76.8040000  93.2640000 126.0350000
  79.1260000  93.8470000 125.7050000  79.1400000  94.7510000 124.6420000
  79.3170000  95.4230000 121.1500000  78.3170000  95.6600000 120.2150000
  77.0050000  98.5770000 121.3640000  78.8130000  98.2280000 123.0470000
  82.5380000  95.1240000 124.4460000  82.4490000  93.5120000 126.3400000
  78.2130000  95.0730000 124.1880000  79.9520000  94.5550000 121.0640000
  78.5150000  92.2880000 127.3790000  77.7660000  91.3530000 128.1740000
  78.2630000  90.0630000 128.3940000  77.5460000  89.1230000 129.1560000
  78.0160000  87.7580000 129.2890000  76.3310000  89.5240000 129.7380000
  75.7990000  90.8050000 129.5000000  74.4830000  91.2000000 130.0470000
  74.2610000  92.4160000 130.3050000  73.4410000  90.2300000 130.2480000
  72.0800000  90.6210000 130.6070000  71.3340000  91.1150000 129.3670000
  69.9630000  91.6210000 129.7270000  68.8760000  90.7360000 129.7930000
  67.6060000  91.2060000 130.1370000  67.4060000  92.5600000 130.4230000
  66.1240000  93.0010000 130.7500000  68.4920000  93.4500000 130.3770000
  68.3040000  94.8010000 130.6740000  69.7690000  92.9770000 130.0340000
  76.5280000  91.7160000 128.7210000  79.1870000  89.7900000 127.9180000
  75.8060000  88.8490000 130.3960000  73.6060000  89.2320000 129.9950000
  72.1050000  91.4110000 131.3870000  71.5500000  89.7430000 131.0320000
  71.9160000  91.9280000 128.8780000  71.2510000  90.2860000 128.6310000
  69.0100000  89.6820000 129.5790000  66.7720000  90.5170000 130.1760000
  65.9260000  93.9740000 130.9570000  69.0750000  95.4590000 130.6470000
  70.6040000  93.6640000 129.9940000  76.1380000  92.7100000 128.5410000
  80.3570000  87.9090000 128.8340000  79.2820000  87.2510000 128.8310000
  77.1850000  86.5830000 129.3080000  75.9640000  86.5730000 129.6120000
  77.9210000  85.4240000 128.8210000  77.4930000  84.1220000 128.5710000
  78.3620000  83.2620000 127.8760000  79.6080000  83.7370000 127.4000000
  80.4080000  82.9580000 126.5550000  80.0920000  82.6840000 125.2120000
  78.7720000  82.8180000 124.6990000  78.5070000  82.6310000 123.3350000
  79.5700000  82.3070000 122.5000000  79.6390000  82.2590000 121.0490000
  78.6540000  82.3900000 120.2730000  81.7330000  81.9930000 121.8390000
  82.9860000  81.8870000 121.9040000  80.8460000  82.1460000 122.9870000
  81.1370000  82.3150000 124.3400000  80.0490000  85.0270000 127.7540000
  79.1800000  85.8430000 128.4770000  76.5130000  83.7910000 128.8810000
  78.0450000  82.2540000 127.6510000  77.9450000  83.0730000 125.3360000
  77.5100000  82.7760000 122.9400000  82.1570000  82.2360000 124.6970000
  81.0050000  85.4030000 127.4080000  80.9920000  82.0790000 120.6120000
  81.5470000  82.5630000 119.3770000  82.6860000  81.9550000 118.8280000
  83.3000000  82.4950000 117.6920000  82.7920000  83.6540000 117.0950000
  83.4710000  84.2080000 115.9980000  83.5360000  85.5790000 115.6930000
  83.4570000  86.5670000 116.6900000  83.5060000  87.9220000 116.3480000
  83.6600000  88.3140000 115.0070000  83.6780000  89.7100000 114.6480000
  83.7770000  87.3250000 114.0200000  83.7280000  85.9690000 114.3630000
  81.6090000  84.2220000 117.5970000  81.0050000  83.6940000 118.7400000
  83.1080000  81.0730000 119.2940000  84.1960000  82.0340000 117.2940000
  83.3660000  86.2920000 117.7330000  83.3930000  88.6580000 117.1310000
  83.9240000  87.6020000 112.9850000  83.8280000  85.2200000 113.5910000
  81.1650000  85.0830000 117.1160000  80.1320000  84.1910000 119.1380000
  84.7690000  90.7140000 116.5130000  84.0440000  90.8150000 115.4870000
  82.9570000  90.3180000 113.5710000  82.4690000  89.6880000 112.5960000
  82.8650000  91.7580000 113.7770000  82.2380000  92.7410000 113.0180000
  82.2780000  94.0640000 113.4860000  82.9560000  94.3900000 114.6870000
  83.0070000  95.7400000 115.0600000  83.4690000  96.2630000 116.2750000
  84.2480000  97.4380000 116.2320000  84.7600000  98.0080000 117.4040000
  84.4450000  97.4030000 118.6160000  84.7350000  97.8230000 119.9790000
  85.4290000  98.8250000 120.2970000  83.3750000  96.0350000 120.0970000
  82.6070000  95.1430000 120.5430000  83.6270000  96.2990000 118.6810000
  83.1190000  95.6980000 117.5270000  83.6030000  93.3690000 115.4230000
  83.5220000  92.0620000 114.9450000  81.7300000  92.4930000 112.0980000
  81.7900000  94.8400000 112.9110000  84.4560000  97.9060000 115.2820000
  85.3670000  98.9050000 117.3690000  82.4530000  94.8470000 117.5960000
  84.1570000  93.5770000 116.3260000  84.0850000  96.9670000 120.9220000
  83.6100000  97.4410000 122.1860000  84.2620000  97.0690000 123.3680000
  83.8340000  97.5880000 124.5950000  82.7470000  98.4690000 124.6590000
  82.3490000  98.9650000 125.9110000  81.0840000  99.4990000 126.1930000
  79.9150000  98.9030000 125.6980000  78.6730000  99.5140000 125.8950000
  78.5780000 100.7000000 126.6340000  77.3170000 101.3800000 126.7380000
  79.7390000 101.2420000 127.2120000  80.9830000 100.6390000 126.9930000
  82.1140000  98.8610000 123.4630000  82.5430000  98.3450000 122.2380000
  85.1020000  96.3850000 123.3400000  84.3390000  97.2890000 125.5070000
  79.9720000  97.9790000 125.1460000  77.7830000  99.0620000 125.4740000
  79.6930000 102.1550000 127.7870000  81.8730000 101.0900000 127.4040000
  81.3020000  99.5780000 123.4680000  82.0490000  98.6580000 121.3250000
  76.5750000 101.2600000 124.4770000  76.4410000 101.6970000 125.6530000
  76.8290000 102.1670000 127.8310000  77.3170000 102.1510000 128.9920000
  75.6500000 102.9290000 127.4160000  74.8180000 103.7940000 128.1250000
  73.7330000 104.3800000 127.4410000  73.5110000 104.1100000 126.0720000
  72.4160000 104.7040000 125.4230000  72.3410000 104.8770000 124.0370000
  73.4040000 105.4900000 123.3270000  73.3640000 105.5910000 121.9280000
  72.2530000 105.0760000 121.2650000  72.0140000 104.8720000 119.8440000
  72.7800000 105.2500000 118.9170000  70.2890000 103.9470000 120.9640000
  69.2420000 103.3040000 121.2330000  71.2010000 104.5130000 121.9510000
  71.2070000 104.4120000 123.3410000  74.3720000 103.2220000 125.3880000
  75.4210000 102.6410000 126.0900000  74.9910000 104.0020000 129.1750000
  73.0660000 105.0490000 127.9680000  74.2690000 105.8580000 123.8630000
  74.1970000 106.0100000 121.3780000  70.3950000 103.9280000 123.8670000
  74.2170000 102.9670000 124.3490000  70.7880000 104.1570000 119.6370000
  70.4780000 103.3150000 118.5130000  71.4980000 102.6550000 117.8090000
  71.1930000 101.7490000 116.7940000  69.8530000 101.5110000 116.4340000
  69.4930000 100.5730000 115.4520000  70.3420000 100.0370000 114.4690000
  71.2930000 100.8250000 113.7990000  72.1350000 100.2510000 112.8410000
  72.0150000  98.8900000 112.5110000  72.9090000  98.2830000 111.5600000
  71.0320000  98.1190000 113.1500000  70.2010000  98.6890000 114.1200000
  68.8350000 102.1860000 117.1190000  69.1450000 103.0750000 118.1560000
  72.5340000 102.8130000 118.0710000  72.0030000 101.2090000 116.3210000
  71.3860000 101.8830000 114.0200000  72.8870000 100.8710000 112.3680000
  70.9050000  97.0720000 112.9010000  69.4530000  98.0810000 114.6100000
  67.8000000 102.0060000 116.8620000  68.3410000 103.5720000 118.6820000
  73.3010000  96.1680000 112.5840000  73.5440000  97.0050000 111.6770000
  73.5400000  98.8920000 110.4260000  73.2440000 100.0240000 109.9670000
  74.5400000  97.9890000 109.8660000  75.3960000  98.1370000 108.7760000
  76.2860000  97.0880000 108.4860000  76.3250000  95.9280000 109.2970000
  77.2170000  94.9010000 108.9570000  77.7310000  93.9590000 109.8580000
  78.1810000  94.3380000 111.1490000  78.7170000  93.3830000 112.0300000
  78.7620000  92.0560000 111.6110000  79.2380000  90.8560000 112.2880000
  79.6850000  90.8200000 113.4660000  78.5900000  90.2590000 110.2040000
  78.3040000  89.5780000 109.1840000  78.3550000  91.6890000 110.3490000
  77.8410000  92.6190000 109.4470000  75.4430000  95.8100000 110.3960000
  74.5510000  96.8490000 110.6370000  75.3760000  99.0350000 108.1730000
  76.9580000  97.1760000 107.6430000  78.1290000  95.3700000 111.4600000
  79.0830000  93.6710000 113.0060000  77.5280000  92.3120000 108.4580000
  75.4400000  94.9350000 111.0290000  79.1460000  89.7220000 111.4150000
  79.7300000  88.4190000 111.6140000  80.2870000  87.7120000 110.5330000
  80.8640000  86.4580000 110.7290000  80.8940000  85.8790000 111.9990000
  81.5020000  84.6240000 112.1430000  81.1930000  83.6540000 113.1070000
  82.1800000  82.7220000 113.4490000  81.9200000  81.7240000 114.3930000
  80.6600000  81.6370000 115.0050000  80.3970000  80.6130000 115.9790000
  79.6590000  82.5540000 114.6420000  79.9210000  83.5480000 113.6930000
  80.3680000  86.5910000 113.0900000  79.7760000  87.8440000 112.8950000
  80.3080000  88.1380000 109.5380000  81.2940000  85.9290000 109.8880000
  83.1560000  82.7770000 112.9860000  82.7120000  81.0390000 114.6660000
  78.6660000  82.4740000 115.0600000  79.1200000  84.2110000 113.3970000
  80.4280000  86.1910000 114.0950000  79.3450000  88.3530000 113.7460000
  78.9280000  81.7270000 117.4860000  79.5450000  80.6920000 117.1270000
  80.8130000  79.2440000 115.9350000  81.5140000  78.7430000 115.0160000
  80.2330000  78.5090000 117.0520000  80.2720000  77.1510000 117.3630000
  79.5160000  76.7020000 118.4600000  78.7580000  77.6100000 119.2350000
  77.9930000  77.1170000 120.2980000  77.7780000  77.8330000 121.4790000
  78.8700000  78.1710000 122.3130000  78.6610000  78.8410000 123.5320000
  77.3540000  79.1710000 123.8750000  76.8360000  79.9240000 125.0070000
  77.5220000  80.3150000 125.9890000  75.1100000  79.5120000 123.6260000
  73.9580000  79.4970000 123.1130000  76.2950000  78.8920000 123.0440000
  76.4690000  78.2000000 121.8470000  78.7410000  78.9810000 118.8980000
  79.4740000  79.3940000 117.7870000  80.8430000  76.4550000 116.7630000
  79.5120000  75.6490000 118.7150000  79.8760000  77.9020000 122.0220000
  79.4910000  79.1110000 124.1700000  75.6260000  77.9740000 121.2090000
  78.1290000  79.6860000 119.4470000  75.4350000  80.1800000 124.8530000
  74.8410000  81.4100000 125.2940000  74.7390000  81.6880000 126.6680000
  74.3820000  82.9700000 127.1030000  74.1910000  83.9960000 126.1680000
  74.1170000  85.3270000 126.5930000  75.0900000  86.2790000 126.2400000
  76.3470000  85.8870000 125.7500000  77.3000000  86.8340000 125.3920000
  77.0210000  88.1980000 125.5190000  78.0060000  89.1690000 125.1360000
  75.7740000  88.6020000 126.0240000  74.8160000  87.6460000 126.3910000
  74.1880000  83.6950000 124.7970000  74.5100000  82.4080000 124.3630000
  74.9910000  80.9260000 127.3940000  74.3460000  83.1880000 128.1610000
  76.6000000  84.8450000 125.6530000  78.2530000  86.4950000 125.0080000
  75.5550000  89.6560000 126.1490000  73.8590000  87.9650000 126.7840000
  74.0160000  84.4810000 124.0710000  74.5920000  82.2170000 123.3000000
  80.0080000  88.1690000 125.9580000  79.4270000  89.0570000 125.2800000
  77.8290000  90.2480000 124.2120000  76.7140000  90.6320000 123.7670000
  79.1300000  90.7980000 123.8300000  79.4710000  91.8140000 122.9400000
  80.8340000  92.1230000 122.7870000  81.8240000  91.4300000 123.5320000
  83.1730000  91.7960000 123.4600000  83.8150000  92.1810000 122.2800000
  83.5060000  91.5570000 121.0430000  84.2080000  91.8990000 119.8790000
  85.2010000  92.8710000 119.9730000  86.0880000  93.4250000 118.9600000
  86.2090000  92.9880000 117.7860000  86.5160000  94.4950000 120.9050000
  86.9610000  95.3140000 121.7510000  85.4840000  93.5000000 121.1630000
  84.8150000  93.1700000 122.3390000  81.4470000  90.3910000 124.3980000
  80.0940000  90.0890000 124.5080000  78.7100000  92.3670000 122.3980000
  81.1240000  92.9240000 122.1230000  82.7520000  90.7820000 120.9890000
  83.9810000  91.4200000 118.9370000  85.0550000  93.6650000 123.2710000
  82.1890000  89.8440000 124.9650000  86.9020000  94.4590000 119.5250000
  87.7000000  95.4280000 118.8170000  87.3900000  95.7690000 117.4930000
  88.1440000  96.7270000 116.8030000  87.8060000  97.0790000 115.4500000
  89.1980000  97.3770000 117.4590000  89.5330000  97.0460000 118.7860000
  90.6150000  97.7580000 119.5150000  90.7020000  97.6310000 120.7660000
  91.5510000  98.6070000 118.8320000  92.3280000  99.6210000 119.5410000
  91.4120000 100.7490000 120.0330000  92.1960000 101.7870000 120.7870000
  92.6850000 102.9240000 120.1300000  93.4270000 103.8810000 120.8300000
  93.7020000 103.7030000 122.1930000  94.4430000 104.6730000 122.8660000
  93.2280000 102.5580000 122.8540000  93.4990000 102.3720000 124.2080000
  92.4800000 101.6030000 122.1490000  88.7810000  96.0600000 119.4490000
  86.5220000  95.3360000 117.0180000  89.7410000  98.1460000 116.9270000
  91.7360000  98.4690000 117.8130000  92.8610000  99.1510000 120.3990000
  93.0910000 100.0440000 118.8510000  90.6250000 100.3360000 120.6980000
  90.8930000 101.2130000 119.1640000  92.4980000 103.0700000 119.0730000
  93.7980000 104.7560000 120.3120000  94.6800000 104.5840000 123.8460000
  93.1690000 101.5550000 124.7090000  92.1270000 100.7160000 122.6580000
  89.0440000  95.7760000 120.4600000  87.1440000  94.9750000 114.5390000
  87.1530000  96.2350000 114.4900000  87.5360000  98.4060000 114.9840000
  87.8640000  99.4560000 115.5980000  86.7330000  98.3630000 113.7690000
  86.0930000  99.3920000 113.0800000  85.1880000  99.0440000 112.0630000
  84.9270000  97.6840000 111.7710000  83.9460000  97.3520000 110.8330000
  82.5780000  97.5310000 111.0780000  81.6860000  97.5970000 109.9840000
  80.3080000  97.8000000 110.1900000  79.8490000  97.8900000 111.5010000
  78.5100000  98.1120000 112.0330000  77.4930000  98.3750000 111.3390000
  79.9120000  97.8760000 113.7920000  80.3560000  97.7110000 114.9590000
  80.7050000  97.7830000 112.5720000  82.0750000  97.6300000 112.3960000
  85.6030000  96.6650000 112.4670000  86.4970000  97.0390000 113.4690000
  86.2500000 100.4270000 113.3520000  84.6550000  99.8210000 111.5300000
  82.0670000  97.5100000 108.9710000  79.6240000  97.8780000 109.3550000
  82.7320000  97.5790000 113.2530000  85.3700000  95.6220000 112.2860000
  78.5320000  98.0820000 113.4680000  77.4300000  98.3190000 114.3680000
  76.1180000  97.9930000 113.9920000  75.0390000  98.2890000 114.8290000
  75.2470000  98.8940000 116.0720000  74.1200000  99.1490000 116.8730000
  74.0740000  99.9450000 118.0280000  73.2260000  99.5500000 119.0680000
  73.1680000 100.2850000 120.2530000  73.9480000 101.4390000 120.4030000
  73.9060000 102.1770000 121.6240000  74.7690000 101.8610000 119.3490000
  74.8170000 101.1310000 118.1580000  76.5660000  99.1610000 116.4850000
  77.6420000  98.8950000 115.6330000  75.9270000  97.4910000 113.0550000
  74.0320000  98.0340000 114.5240000  72.6300000  98.6530000 118.9620000
  72.5220000  99.9520000 121.0550000  74.5380000 102.9940000 121.7700000
  73.2540000 101.9050000 122.3940000  75.3500000 102.7690000 119.4440000
  75.4200000 101.5000000 117.3350000  76.7780000  99.5540000 117.4690000
  78.6350000  99.1640000 115.9660000 107.7980000  66.2600000  81.4970000
 107.5710000  67.6450000  81.2250000 107.4760000  68.1010000  79.9050000
 107.2320000  69.4510000  79.6420000 107.0980000  70.3680000  80.6910000
 106.8270000  71.7100000  80.3820000 107.0930000  72.8080000  81.2140000
 108.2260000  72.8470000  82.0390000 108.4260000  73.9120000  82.9130000
 107.5010000  74.9670000  82.9720000 107.6480000  76.0040000  83.9550000
 106.4140000  74.9710000  82.0810000 106.2170000  73.8990000  81.2060000
 107.1840000  69.9060000  82.0170000 107.4280000  68.5560000  82.2790000
 107.8480000  65.9040000  82.4800000 107.9310000  65.5800000  80.7140000
 107.5800000  67.4070000  79.0820000 107.1420000  69.7840000  78.6160000
 108.9460000  72.0450000  82.0130000 109.3050000  73.9120000  83.5460000
 105.6890000  75.7760000  82.0970000 105.3560000  73.8960000  80.5510000
 107.0390000  70.5790000  82.8510000 107.4940000  68.2180000  83.3040000
 108.4820000  74.7810000  85.8250000 108.1880000  75.8770000  85.2770000
 107.3840000  77.4050000  83.8160000 106.8590000  77.9340000  82.8020000
 107.7920000  78.1190000  85.0160000 107.7890000  79.4800000  85.3150000
 108.2750000  79.8810000  86.5740000 108.7300000  78.9180000  87.5050000
 109.1990000  79.3190000  88.7570000 108.4620000  79.1800000  89.9420000
 109.1560000  79.2000000  91.1710000 108.4680000  79.0730000  92.3910000
 107.0840000  78.9330000  92.3490000 106.1200000  78.7450000  93.4240000
 106.3920000  78.7250000  94.6530000 104.9830000  78.7300000  91.4660000
 104.0610000  78.6080000  90.6160000 106.3950000  78.9230000  91.1570000
 107.0530000  79.0390000  89.9320000 108.7340000  77.5530000  87.1680000
 108.2710000  77.1860000  85.9100000 107.4290000  80.2070000  84.6000000
 108.2870000  80.9300000  86.8280000 110.2330000  79.2770000  91.1810000
 109.0020000  79.0700000  93.3340000 106.4920000  79.0220000  89.0080000
 109.1020000  76.8070000  87.8540000 104.8010000  78.6240000  92.8830000
 103.5870000  78.3160000  93.5900000 103.6050000  77.4030000  94.6510000
 102.4320000  77.0730000  95.3530000 102.4400000  76.0480000  96.3770000
 101.2360000  77.7200000  94.9930000 101.1920000  78.6140000  93.9080000
  99.9190000  79.2350000  93.4800000  99.9410000  80.3700000  92.9270000
  98.6670000  78.5490000  93.6440000  97.4260000  79.0560000  93.0630000
  97.3730000  78.7230000  91.5710000  96.1540000  79.3240000  90.9270000
  94.9350000  78.6280000  90.9290000  93.8010000  79.1920000  90.3380000
  93.8670000  80.4560000  89.7440000  92.7220000  80.9860000  89.1510000
  95.0790000  81.1680000  89.7530000  95.1500000  82.4350000  89.1730000
  96.2170000  80.6020000  90.3490000 102.3760000  78.9110000  93.2150000
 104.5360000  76.9180000  94.8840000 100.3420000  77.5480000  95.5710000
  98.6500000  77.5930000  94.0600000  97.3530000  80.1530000  93.2210000
  96.5650000  78.5820000  93.5780000  98.2900000  79.1080000  91.0700000
  97.3680000  77.6200000  91.4390000  94.8610000  77.6490000  91.3870000
  92.8700000  78.6430000  90.3370000  92.7210000  81.8940000  88.6990000
  96.0140000  82.9660000  89.1700000  97.1510000  81.1490000  90.3510000
 102.3590000  79.6080000  92.3860000 104.7260000  75.9400000  97.0640000
 103.6050000  75.3870000  96.9040000 101.3910000  75.0920000  96.6160000
 100.1900000  75.2430000  96.2700000 101.9270000  73.8770000  97.2150000
 101.3060000  72.6680000  97.5160000 102.1190000  71.5760000  97.8720000
 103.5290000  71.7030000  97.8640000 104.3590000  70.5900000  98.0390000
 104.5270000  69.5800000  97.0730000 103.5920000  69.3700000  96.0220000
 103.8360000  68.4200000  95.0200000 105.0140000  67.6860000  95.0880000
 105.6220000  66.8020000  94.1060000 105.0840000  66.4420000  93.0250000
 107.1010000  67.0780000  95.7860000 108.1570000  67.0470000  96.4710000
 105.9130000  67.8570000  96.1140000 105.6920000  68.7870000  97.1290000
 104.1190000  72.9650000  97.6500000 103.2840000  74.0360000  97.3380000
 100.2330000  72.5650000  97.4540000 101.6620000  70.6210000  98.0880000
 102.6800000  69.9370000  95.9590000 103.1430000  68.2930000  94.1980000
 106.4360000  68.9460000  97.9000000 105.1970000  73.0820000  97.6520000
 106.9410000  66.4210000  94.5190000 108.0350000  66.1030000  93.6410000
 109.0970000  65.3050000  94.0960000 110.2200000  65.0910000  93.2880000
 110.3020000  65.6780000  92.0210000 111.4720000  65.4990000  91.2640000
 112.0050000  66.4360000  90.3610000 111.8080000  67.8190000  90.5220000
 112.3360000  68.7200000  89.5940000 113.0930000  68.2600000  88.5030000
 113.6120000  69.1860000  87.5270000 113.3200000  66.8830000  88.3670000
 112.7900000  65.9810000  89.2960000 109.2110000  66.4140000  91.5330000
 108.0970000  66.6420000  92.3440000 109.0600000  64.8670000  95.0860000
 111.0450000  64.4980000  93.6610000 111.2530000  68.2010000  91.3690000
 112.1260000  69.7740000  89.7180000 113.9210000  66.5070000  87.5500000
 112.9810000  64.9240000  89.1810000 109.2280000  66.8270000  90.5330000
 107.3010000  67.2660000  91.9630000 114.1190000  71.1040000  88.8460000
 113.9000000  70.5780000  87.7220000 113.5480000  69.0420000  86.1040000
 113.3290000  67.9540000  85.5070000 113.7630000  70.3300000  85.4580000
 113.7580000  70.6770000  84.1110000 113.9570000  72.0260000  83.7750000
 114.1790000  73.0000000  84.7790000 114.4320000  74.3160000  84.3660000
 114.5080000  75.4550000  85.1770000 115.5210000  76.3960000  84.8970000
 115.6700000  77.5500000  85.6770000 114.7650000  77.7600000  86.7120000
 114.6060000  78.9000000  87.6030000 115.3580000  79.9100000  87.6310000
 112.8900000  77.4950000  87.9860000 111.8060000  77.0200000  88.4130000
 113.7290000  76.8890000  86.9530000 113.5680000  75.7200000  86.2040000
 114.2010000  72.6090000  86.1390000 113.9720000  71.2680000  86.4410000
 113.5980000  69.9320000  83.3450000 113.9500000  72.3150000  82.7310000
 116.1940000  76.2260000  84.0710000 116.4550000  78.2670000  85.4670000
 112.7300000  75.0590000  86.3870000 114.3970000  73.3130000  86.9340000
 113.4430000  78.7440000  88.4210000 112.6590000  79.8590000  88.8560000
 112.6830000  80.2550000  90.1990000 111.9650000  81.3860000  90.6070000
 111.2080000  82.1220000  89.6870000 110.5020000  83.2490000  90.1380000
 109.4140000  83.8290000  89.4720000 108.4150000  83.0390000  88.8850000
 107.3990000  83.6320000  88.1280000 107.3390000  85.0260000  87.9950000
 106.3610000  85.6200000  87.1280000 108.2850000  85.8200000  88.6660000
 109.3130000  85.2200000  89.4030000 111.2130000  81.7350000  88.3320000
 111.9300000  80.6080000  87.9250000 113.2570000  79.6950000  90.9270000
 111.9820000  81.6810000  91.6500000 108.4370000  81.9670000  88.9980000
 106.6560000  83.0070000  87.6500000 108.2610000  86.8960000  88.5810000
 110.0600000  85.8390000  89.8770000 110.6790000  82.3090000  87.5840000
 111.9270000  80.3230000  86.8790000 106.5460000  84.1940000  85.2280000
 106.0870000  85.2320000  85.7780000 105.7120000  86.8890000  87.2720000
 105.6920000  87.5600000  88.3380000 105.0290000  87.2490000  86.0280000
 104.2440000  88.3530000  85.6970000 103.7010000  88.4150000  84.3970000
 103.9630000  87.3940000  83.4560000 103.3990000  87.4830000  82.1720000
 103.9140000  86.8150000  81.0560000 105.2880000  86.9150000  80.7240000
 105.8190000  86.1810000  79.6520000 104.9580000  85.3600000  78.9290000
 105.2410000  84.3630000  77.9080000 106.3760000  84.1410000  77.4040000
 103.0420000  84.2390000  78.3870000 101.8440000  83.8570000  78.4270000
 103.6150000  85.2870000  79.2230000 103.0580000  86.0150000  80.2720000
 104.7570000  86.2870000  83.8300000 105.2630000  86.2390000  85.1240000
 104.0470000  89.1370000  86.4210000 103.0820000  89.2560000  84.1150000
 105.9430000  87.5390000  81.3170000 106.8780000  86.2140000  79.4280000
 102.0090000  85.9160000  80.5230000 104.9540000  85.4720000  83.1480000
 104.0500000  83.6430000  77.5610000 103.9900000  82.2990000  77.0520000
 104.9920000  81.3680000  77.3680000 104.8780000  80.0360000  76.9710000
 103.7690000  79.6130000  76.2140000 103.5850000  78.2740000  75.8330000
 104.5750000  77.2780000  75.8050000 105.8810000  77.5410000  75.3580000
 106.8460000  76.5290000  75.3650000 106.5120000  75.2290000  75.7820000
 107.5120000  74.1940000  75.8340000 105.1950000  74.9610000  76.1830000
 104.2340000  75.9760000  76.1930000 102.7800000  80.5460000  75.8780000
 102.8860000  81.8770000  76.3000000 105.8490000  81.6640000  77.9550000
 105.6360000  79.3340000  77.2920000 106.1550000  78.5310000  75.0080000
 107.8560000  76.7680000  75.0530000 104.9060000  73.9620000  76.4910000
 103.2240000  75.7570000  76.5110000 101.9160000  80.2350000  75.3060000
 102.1010000  82.5750000  76.0430000 106.9120000  73.0790000  77.8520000
 107.6950000  73.2340000  76.8800000 108.6670000  74.0380000  75.0000000
 108.8780000  74.6860000  73.9440000 109.5330000  72.9930000  75.5360000
 110.7490000  72.4910000  75.0780000 111.3750000  71.4820000  75.8320000
 110.7940000  71.0120000  77.0350000 111.4460000  69.9930000  77.7420000
 111.3080000  69.7600000  79.1170000 111.3060000  70.8270000  80.0530000
 111.1910000  70.5720000  81.4300000 111.0460000  69.2500000  81.8430000
 110.8940000  68.6770000  83.1740000 110.8240000  69.3400000  84.2430000
 110.9690000  66.9680000  81.6930000 110.9320000  65.8160000  81.1850000
 111.0780000  68.2110000  80.9420000 111.2140000  68.4330000  79.5730000
 109.5580000  71.5440000  77.4710000 108.9470000  72.5160000  76.6870000
 111.1990000  72.8680000  74.1690000 112.3190000  71.0720000  75.4960000
 111.4090000  71.8460000  79.7120000 111.2140000  71.3800000  82.1480000
 111.2390000  67.6030000  78.8800000 109.0830000  71.2010000  78.3780000
 110.8530000  67.2450000  83.0970000 110.9530000  66.3110000  84.1920000
 111.6790000  65.1150000  84.0460000 111.7860000  64.2190000  85.1090000
 111.1710000  64.4890000  86.3330000 111.3270000  63.5610000  87.3730000
 110.4280000  63.3310000  88.4240000 110.9260000  62.7870000  89.6140000
 110.0710000  62.5220000  90.6880000 108.6970000  62.7900000  90.5840000
 107.8210000  62.5220000  91.6920000 108.1910000  63.3080000  89.3810000
 109.0480000  63.5670000  88.3060000 110.4710000  65.6950000  86.4970000
 110.3490000  66.5910000  85.4290000 112.1920000  64.8820000  83.1220000
 112.3530000  63.3050000  84.9830000 111.9830000  62.5760000  89.7090000
 110.4870000  62.1360000  91.6100000 107.1300000  63.4730000  89.2590000
 108.6260000  63.9220000  87.3760000 110.0310000  65.9560000  87.4520000
 109.7720000  67.4940000  85.5710000 106.2310000  64.2830000  91.5050000
 106.6450000  63.2420000  92.0750000 107.8490000  61.3900000  92.5680000
 108.6930000  60.4570000  92.4990000 106.7120000  61.4350000  93.4800000
 106.2730000  60.5120000  94.4280000 105.0640000  60.7760000  95.0950000
 104.3300000  61.9540000  94.8230000 103.1140000  62.1620000  95.4830000
 102.6550000  63.4290000  95.8550000 103.3880000  64.2060000  96.7840000
 102.9070000  65.4570000  97.2090000 101.7040000  65.9070000  96.6730000
 101.0050000  67.1700000  96.8490000 101.3350000  68.0700000  97.6670000
  99.9040000  66.0050000  95.2720000  99.0790000  65.6770000  94.3770000
 101.0150000  65.1800000  95.7310000 101.4510000  63.9230000  95.3160000
 104.8030000  62.8720000  93.8580000 105.9890000  62.5710000  93.1910000
 106.8280000  59.6060000  94.6280000 104.6870000  60.0690000  95.8230000
 104.3190000  63.8320000  97.1840000 103.4650000  66.0600000  97.9100000
 100.8920000  63.3550000  94.5860000 104.2330000  63.7560000  93.5990000
  99.8920000  67.2680000  95.9520000  99.5170000  68.5160000  95.3500000
  98.9690000  69.5400000  96.1400000  98.8190000  70.8300000  95.6170000
  99.2790000  71.1170000  94.3240000  99.3970000  72.4450000  93.9010000
 100.6420000  73.0270000  93.6050000 101.8420000  72.4410000  94.0450000
 103.0700000  73.0160000  93.7390000 103.1310000  74.1940000  92.9890000
 104.4030000  74.7740000  92.6670000 101.9370000  74.7990000  92.5580000
 100.6990000  74.2220000  92.8730000  99.7270000  70.0740000  93.5000000
  99.8440000  68.7790000  94.0100000  98.7120000  69.3480000  97.1750000
  98.4360000  71.6240000  96.2440000 101.8310000  71.5420000  94.6360000
 103.9730000  72.5310000  94.0850000 101.9700000  75.7250000  91.9970000
  99.7840000  74.6950000  92.5420000 100.0610000  70.2860000  92.4910000
 100.2770000  68.0060000  93.3880000 105.5960000  74.4700000  94.7090000
 105.5750000  74.7880000  93.4900000 104.8850000  75.1100000  91.3620000
 104.1700000  75.1470000  90.3250000 106.3260000  75.3540000  91.4070000
 107.2360000  75.6660000  90.4010000 108.5830000  75.8480000  90.7650000
 108.9910000  75.7330000  92.1200000 110.3070000  76.0080000  92.5070000
 111.4310000  75.6430000  91.7600000 111.4730000  74.4100000  91.0570000
 112.6330000  74.0200000  90.3730000 113.7280000  74.8790000  90.3970000
 115.0480000  74.7520000  89.7960000 115.4950000  73.7140000  89.2410000
 114.9560000  76.7610000  90.8290000 115.2370000  77.9260000  91.2140000
 113.6830000  76.0880000  91.0520000 112.5510000  76.4950000  91.7530000
 108.0520000  75.3870000  93.1050000 106.7330000  75.1870000  92.7120000
 106.9170000  75.7880000  89.3710000 109.3040000  76.1150000  90.0080000
 110.6240000  73.7380000  91.0720000 112.6700000  73.0790000  89.8440000
 112.5330000  77.4440000  92.2730000 108.3460000  75.2840000  94.1420000
 115.8210000  75.9340000  90.0410000 117.0530000  76.3200000  89.4010000
 117.3790000  75.8210000  88.1330000 118.5620000  76.2080000  87.4910000
 118.8770000  75.7010000  86.1820000 119.4110000  77.1350000  88.1120000
 119.1090000  77.6430000  89.3890000 119.9700000  78.6630000  90.0440000
 119.5310000  79.2890000  91.0450000 121.2840000  78.9680000  89.5490000
 121.9620000  80.2170000  89.8890000 121.2560000  81.4060000  89.2270000
 121.9300000  82.7010000  89.5890000 122.9130000  83.2490000  88.7550000
 123.5480000  84.4450000  89.1030000 123.2190000  85.0990000  90.2970000
 123.8680000  86.2900000  90.6190000 122.2450000  84.5470000  91.1470000
 121.9140000  85.1880000  92.3380000 121.6070000  83.3490000  90.7910000
 117.9300000  77.2170000  90.0270000 116.6810000  75.1800000  87.6140000
 120.2970000  77.4570000  87.5840000 121.8050000  78.2650000  88.9780000
 121.9800000  80.3430000  90.9960000 123.0140000  80.1700000  89.5310000
 120.1950000  81.4460000  89.5510000 121.2530000  81.2690000  88.1210000
 123.1930000  82.7490000  87.8360000 124.3050000  84.8600000  88.4480000
 123.6770000  86.7930000  91.4770000 121.2160000  84.8120000  92.9690000
 120.8660000  82.9190000  91.4540000 117.6990000  77.5790000  91.0210000
 118.0940000  73.4510000  86.3190000 118.4500000  74.4470000  85.6320000
 119.1650000  76.5040000  85.0320000 119.4920000  77.7190000  85.0760000
 118.9120000  75.7490000  83.8110000 118.8800000  76.1740000  82.4840000
 118.3810000  75.2850000  81.5160000 117.9080000  74.0070000  81.8950000
 117.3160000  73.1760000  80.9400000 116.0570000  73.4450000  80.3850000
 115.7080000  72.8480000  79.1530000 114.4620000  73.1120000  78.5530000
 113.5730000  73.9420000  79.2290000 112.2410000  74.4130000  78.8700000
 111.6780000  74.2070000  77.7640000 112.7400000  75.2670000  80.9040000
 112.6400000  75.8190000  82.0310000 113.8890000  74.4920000  80.4500000
 115.1300000  74.2850000  81.0420000 117.9720000  73.5940000  83.2380000
 118.4730000  74.4950000  84.1770000 119.1840000  77.1760000  82.2120000
 118.3180000  75.5980000  80.4820000 116.4130000  72.1920000  78.6510000
 114.2000000  72.6790000  77.5960000 115.3660000  74.7530000  81.9870000
 117.5640000  72.6380000  83.5440000 111.6980000  75.2250000  79.9220000
 110.4380000  75.9270000  79.9300000 109.3370000  75.4240000  79.2200000
 108.1360000  76.1360000  79.1610000 107.9980000  77.3540000  79.8320000
 106.7580000  78.0120000  79.7470000 106.4790000  79.3320000  80.1360000
 105.2250000  79.6040000  80.6910000 104.9080000  80.8910000  81.1280000
 105.8410000  81.9270000  80.9970000 105.5250000  83.2380000  81.4660000
 107.0850000  81.6680000  80.4060000 107.3960000  80.3820000  79.9570000
 109.0760000  77.8310000  80.6020000 110.2880000  77.1350000  80.6330000
 109.3990000  74.4670000  78.7220000 107.2970000  75.7360000  78.6070000
 104.5040000  78.8040000  80.8050000 103.9390000  81.0780000  81.5740000
 106.2420000  83.9960000  81.4390000 104.5800000  83.4560000  81.8550000
 107.7990000  82.4700000  80.2710000 108.3440000  80.2110000  79.4570000
 108.9860000  78.7270000  81.2000000 111.1080000  77.5610000  81.1930000
  90.0000000  90.0000000  90.0000000  90.0000000  90.0000000  90.0000000
