%VERSION  VERSION_STAMP = V0001.000  DATE = 09/01/26  16:14:15                  
%FLAG TITLE                                                                     
%FORMAT(20a4)                                                                   
default_name                                                                    
%FLAG POINTERS                                                                  
%FORMAT(10I8)                                                                   
    2694      13     804    2184    1596    3306    3564    5640       0       0
   14886       6    2184    3306    5640      18      30      19      14       0
       0       0       0       0       0       0       0       1     449       0
       0
%FLAG ATOM_NAME                                                                 
%FORMAT(20a4)                                                                   
N1  C1  C2  C3  C4  O1  C5  C6  C7  C8  N2  C9  C10 C11 C12 H1  H2  H3  H4  H5  
H6  H7  H8  H9  H10 O2  C13 C14 O3  C15 C16 C17 C18 O4  C19 C20 C21 C22 C23 O5  
C24 O6  C25 C26 C27 C28 H11 H12 H13 H14 H15 H16 N3  C29 C30 C31 N4  C32 C33 C34 
O7  N5  C35 C36 C37 C38 C39 C40 O8  C41 O9  C42 C43 H17 H18 H19 H20 H21 H22 H23 
H24 H25 H26 H27 H28 H29 O10 C44 C45 O11 C46 C47 C48 C49 O12 C50 C51 C52 C53 C54 
O13 C55 O14 C56 C57 C58 C59 H30 H31 H32 H33 H34 H35 N6  C60 C61 C62 C63 O15 C64 
C65 C66 C67 N7  C68 C69 C70 C71 H36 H37 H38 H39 H40 H41 H42 H43 O16 C72 C73 O17 
C74 C75 C76 C77 O18 C78 C79 C80 C81 C82 O19 C83 O20 C84 C85 C86 C87 H44 H45 H46 
H47 H48 H49 N8  C88 C89 C90 C91 O21 C92 C93 C94 C95 N9  C96 C97 C98 C99 H50 H51 
H52 H53 H54 H55 H56 H57 O22 C100C101O23 C102C103C104C105O24 C106C107C108C109C110
O25 C111O26 C112C113C114C115H58 H59 H60 H61 H62 H63 N10 C116C117C118C119O27 C120
C121C122C123N11 C124C125C126C127H64 H65 H66 H67 H68 H69 H70 H71 O28 C128C129O29 
C130C131C132C133O30 C134C135C136C137C138O31 C139O32 C140C141C142C143H72 H73 H74 
H75 H76 H77 N12 C144C145C146C147O33 C148C149C150C151N13 C152C153C154C155H78 H79 
H80 H81 H82 H83 H84 H85 O34 C156C157O35 C158C159C160C161O36 C162C163C164C165C166
O37 C167O38 C168C169C170C171H86 H87 H88 H89 H90 H91 N14 C172C173C174C175O39 C176
C177C178C179N15 C180C181C182C183H92 H93 H94 H95 H96 H97 H98 H99 O40 C184C185O41 
C186C187C188C189O42 C190C191C192C193C194O43 C195O44 C196C197C198C199H100H101H102
H103H104H105N16 C200C201C202N17 C203C204C205O45 N18 C206C207C208C209C210C211O46 
C212O47 C213C214H106H107H108H109H110H111H112H113H114H115H116H117H118O48 C215C216
O49 C217C218C219C220O50 C221C222C223C224C225O51 C226O52 C227C228C229C230H119H120
H121H122H123H124N19 C231C232C233C234O53 C235C236C237C238N20 C239C240C241C242H125
H126H127H128H129H130H131H132H133H134N1  C1  C2  C3  C4  O1  C5  C6  C7  C8  N2  
C9  C10 C11 C12 H1  H2  H3  H4  H5  H6  H7  H8  H9  H10 O2  C13 C14 O3  C15 C16 
C17 C18 O4  C19 C20 C21 C22 C23 O5  C24 O6  C25 C26 C27 C28 H11 H12 H13 H14 H15 
H16 N3  C29 C30 C31 N4  C32 C33 C34 O7  N5  C35 C36 C37 C38 C39 C40 O8  C41 O9  
C42 C43 H17 H18 H19 H20 H21 H22 H23 H24 H25 H26 H27 H28 H29 O10 C44 C45 O11 C46 
C47 C48 C49 O12 C50 C51 C52 C53 C54 O13 C55 O14 C56 C57 C58 C59 H30 H31 H32 H33 
H34 H35 N6  C60 C61 C62 C63 O15 C64 C65 C66 C67 N7  C68 C69 C70 C71 H36 H37 H38 
H39 H40 H41 H42 H43 O16 C72 C73 O17 C74 C75 C76 C77 O18 C78 C79 C80 C81 C82 O19 
C83 O20 C84 C85 C86 C87 H44 H45 H46 H47 H48 H49 N8  C88 C89 C90 C91 O21 C92 C93 
C94 C95 N9  C96 C97 C98 C99 H50 H51 H52 H53 H54 H55 H56 H57 O22 C100C101O23 C102
C103C104C105O24 C106C107C108C109C110O25 C111O26 C112C113C114C115H58 H59 H60 H61 
H62 H63 N10 C116C117C118C119O27 C120C121C122C123N11 C124C125C126C127H64 H65 H66 
H67 H68 H69 H70 H71 O28 C128C129O29 C130C131C132C133O30 C134C135C136C137C138O31 
C139O32 C140C141C142C143H72 H73 H74 H75 H76 H77 N12 C144C145C146C147O33 C148C149
C150C151N13 C152C153C154C155H78 H79 H80 H81 H82 H83 H84 H85 O34 C156C157O35 C158
C159C160C161O36 C162C163C164C165C166O37 C167O38 C168C169C170C171H86 H87 H88 H89 
H90 H91 N14 C172C173C174C175O39 C176C177C178C179N15 C180C181C182C183H92 H93 H94 
H95 H96 H97 H98 H99 O40 C184C185O41 C186C187C188C189O42 C190C191C192C193C194O43 
C195O44 C196C197C198C199H100H101H102H103H104H105N16 C200C201C202N17 C203C204C205
O45 N18 C206C207C208C209C210C211O46 C212O47 C213C214H106H107H108H109H110H111H112
H113H114H115H116H117H118O48 C215C216O49 C217C218C219C220O50 C221C222C223C224C225
O51 C226O52 C227C228C229C230H119H120H121H122H123H124N19 C231C232C233C234O53 C235
C236C237C238N20 C239C240C241C242H125H126H127H128H129H130H131H132H133H134N1  C1  
C2  C3  C4  O1  C5  C6  C7  C8  N2  C9  C10 C11 C12 H1  H2  H3  H4  H5  H6  H7  
H8  H9  H10 O2  C13 C14 O3  C15 C16 C17 C18 O4  C19 C20 C21 C22 C23 O5  C24 O6  
C25 C26 C27 C28 H11 H12 H13 H14 H15 H16 N3  C29 C30 C31 N4  C32 C33 C34 O7  N5  
C35 C36 C37 C38 C39 C40 O8  C41 O9  C42 C43 H17 H18 H19 H20 H21 H22 H23 H24 H25 
H26 H27 H28 H29 O10 C44 C45 O11 C46 C47 C48 C49 O12 C50 C51 C52 C53 C54 O13 C55 
O14 C56 C57 C58 C59 H30 H31 H32 H33 H34 H35 N6  C60 C61 C62 C63 O15 C64 C65 C66 
C67 N7  C68 C69 C70 C71 H36 H37 H38 H39 H40 H41 H42 H43 O16 C72 C73 O17 C74 C75 
C76 C77 O18 C78 C79 C80 C81 C82 O19 C83 O20 C84 C85 C86 C87 H44 H45 H46 H47 H48 
H49 N8  C88 C89 C90 C91 O21 C92 C93 C94 C95 N9  C96 C97 C98 C99 H50 H51 H52 H53 
H54 H55 H56 H57 O22 C100C101O23 C102C103C104C105O24 C106C107C108C109C110O25 C111
O26 C112C113C114C115H58 H59 H60 H61 H62 H63 N10 C116C117C118C119O27 C120C121C122
C123N11 C124C125C126C127H64 H65 H66 H67 H68 H69 H70 H71 O28 C128C129O29 C130C131
C132C133O30 C134C135C136C137C138O31 C139O32 C140C141C142C143H72 H73 H74 H75 H76 
H77 N12 C144C145C146C147O33 C148C149C150C151N13 C152C153C154C155H78 H79 H80 H81 
H82 H83 H84 H85 O34 C156C157O35 C158C159C160C161O36 C162C163C164C165C166O37 C167
O38 C168C169C170C171H86 H87 H88 H89 H90 H91 N14 C172C173C174C175O39 C176C177C178
C179N15 C180C181C182C183H92 H93 H94 H95 H96 H97 H98 H99 O40 C184C185O41 C186C187
C188C189O42 C190C191C192C193C194O43 C195O44 C196C197C198C199H100H101H102H103H104
H105N16 C200C201C202N17 C203C204C205O45 N18 C206C207C208C209C210C211O46 C212O47 
C213C214H106H107H108H109H110H111H112H113H114H115H116H117H118O48 C215C216O49 C217
C218C219C220O50 C221C222C223C224C225O51 C226O52 C227C228C229C230H119H120H121H122
H123H124N19 C231C232C233C234O53 C235C236C237C238N20 C239C240C241C242H125H126H127
H128H129H130H131H132H133H134N1  C1  C2  C3  C4  O1  C5  C6  C7  C8  N2  C9  C10 
C11 C12 H1  H2  H3  H4  H5  H6  H7  H8  H9  H10 O2  C13 C14 O3  C15 C16 C17 C18 
O4  C19 C20 C21 C22 C23 O5  C24 O6  C25 C26 C27 C28 H11 H12 H13 H14 H15 H16 N3  
C29 C30 C31 N4  C32 C33 C34 O7  N5  C35 C36 C37 C38 C39 C40 O8  C41 O9  C42 C43 
H17 H18 H19 H20 H21 H22 H23 H24 H25 H26 H27 H28 H29 O10 C44 C45 O11 C46 C47 C48 
C49 O12 C50 C51 C52 C53 C54 O13 C55 O14 C56 C57 C58 C59 H30 H31 H32 H33 H34 H35 
N6  C60 C61 C62 C63 O15 C64 C65 C66 C67 N7  C68 C69 C70 C71 H36 H37 H38 H39 H40 
H41 H42 H43 O16 C72 C73 O17 C74 C75 C76 C77 O18 C78 C79 C80 C81 C82 O19 C83 O20 
C84 C85 C86 C87 H44 H45 H46 H47 H48 H49 N8  C88 C89 C90 C91 O21 C92 C93 C94 C95 
N9  C96 C97 C98 C99 H50 H51 H52 H53 H54 H55 H56 H57 O22 C100C101O23 C102C103C104
C105O24 C106C107C108C109C110O25 C111O26 C112C113C114C115H58 H59 H60 H61 H62 H63 
N10 C116C117C118C119O27 C120C121C122C123N11 C124C125C126C127H64 H65 H66 H67 H68 
H69 H70 H71 O28 C128C129O29 C130C131C132C133O30 C134C135C136C137C138O31 C139O32 
C140C141C142C143H72 H73 H74 H75 H76 H77 N12 C144C145C146C147O33 C148C149C150C151
N13 C152C153C154C155H78 H79 H80 H81 H82 H83 H84 H85 O34 C156C157O35 C158C159C160
C161O36 C162C163C164C165C166O37 C167O38 C168C169C170C171H86 H87 H88 H89 H90 H91 
N14 C172C173C174C175O39 C176C177C178C179N15 C180C181C182C183H92 H93 H94 H95 H96 
H97 H98 H99 O40 C184C185O41 C186C187C188C189O42 C190C191C192C193C194O43 C195O44 
C196C197C198C199H100H101H102H103H104H105N16 C200C201C202N17 C203C204C205O45 N18 
C206C207C208C209C210C211O46 C212O47 C213C214H106H107H108H109H110H111H112H113H114
H115H116H117H118O48 C215C216O49 C217C218C219C220O50 C221C222C223C224C225O51 C226
O52 C227C228C229C230H119H120H121H122H123H124N19 C231C232C233C234O53 C235C236C237
C238N20 C239C240C241C242H125H126H127H128H129H130H131H132H133H134N1  C1  C2  C3  
C4  O1  C5  C6  C7  C8  N2  C9  C10 C11 C12 H1  H2  H3  H4  H5  H6  H7  H8  H9  
H10 O2  C13 C14 O3  C15 C16 C17 C18 O4  C19 C20 C21 C22 C23 O5  C24 O6  C25 C26 
C27 C28 H11 H12 H13 H14 H15 H16 N3  C29 C30 C31 N4  C32 C33 C34 O7  N5  C35 C36 
C37 C38 C39 C40 O8  C41 O9  C42 C43 H17 H18 H19 H20 H21 H22 H23 H24 H25 H26 H27 
H28 H29 O10 C44 C45 O11 C46 C47 C48 C49 O12 C50 C51 C52 C53 C54 O13 C55 O14 C56 
C57 C58 C59 H30 H31 H32 H33 H34 H35 N6  C60 C61 C62 C63 O15 C64 C65 C66 C67 N7  
C68 C69 C70 C71 H36 H37 H38 H39 H40 H41 H42 H43 O16 C72 C73 O17 C74 C75 C76 C77 
O18 C78 C79 C80 C81 C82 O19 C83 O20 C84 C85 C86 C87 H44 H45 H46 H47 H48 H49 N8  
C88 C89 C90 C91 O21 C92 C93 C94 C95 N9  C96 C97 C98 C99 H50 H51 H52 H53 H54 H55 
H56 H57 O22 C100C101O23 C102C103C104C105O24 C106C107C108C109C110O25 C111O26 C112
C113C114C115H58 H59 H60 H61 H62 H63 N10 C116C117C118C119O27 C120C121C122C123N11 
C124C125C126C127H64 H65 H66 H67 H68 H69 H70 H71 O28 C128C129O29 C130C131C132C133
O30 C134C135C136C137C138O31 C139O32 C140C141C142C143H72 H73 H74 H75 H76 H77 N12 
C144C145C146C147O33 C148C149C150C151N13 C152C153C154C155H78 H79 H80 H81 H82 H83 
H84 H85 O34 C156C157O35 C158C159C160C161O36 C162C163C164C165C166O37 C167O38 C168
C169C170C171H86 H87 H88 H89 H90 H91 N14 C172C173C174C175O39 C176C177C178C179N15 
C180C181C182C183H92 H93 H94 H95 H96 H97 H98 H99 O40 C184C185O41 C186C187C188C189
O42 C190C191C192C193C194O43 C195O44 C196C197C198C199H100H101H102H103H104H105N16 
C200C201C202N17 C203C204C205O45 N18 C206C207C208C209C210C211O46 C212O47 C213C214
H106H107H108H109H110H111H112H113H114H115H116H117H118O48 C215C216O49 C217C218C219
C220O50 C221C222C223C224C225O51 C226O52 C227C228C229C230H119H120H121H122H123H124
N19 C231C232C233C234O53 C235C236C237C238N20 C239C240C241C242H125H126H127H128H129
H130H131H132H133H134N1  C1  C2  C3  C4  O1  C5  C6  C7  C8  N2  C9  C10 C11 C12 
H1  H2  H3  H4  H5  H6  H7  H8  H9  H10 O2  C13 C14 O3  C15 C16 C17 C18 O4  C19 
C20 C21 C22 C23 O5  C24 O6  C25 C26 C27 C28 H11 H12 H13 H14 H15 H16 N3  C29 C30 
C31 N4  C32 C33 C34 O7  N5  C35 C36 C37 C38 C39 C40 O8  C41 O9  C42 C43 H17 H18 
H19 H20 H21 H22 H23 H24 H25 H26 H27 H28 H29 O10 C44 C45 O11 C46 C47 C48 C49 O12 
C50 C51 C52 C53 C54 O13 C55 O14 C56 C57 C58 C59 H30 H31 H32 H33 H34 H35 N6  C60 
C61 C62 C63 O15 C64 C65 C66 C67 N7  C68 C69 C70 C71 H36 H37 H38 H39 H40 H41 H42 
H43 O16 C72 C73 O17 C74 C75 C76 C77 O18 C78 C79 C80 C81 C82 O19 C83 O20 C84 C85 
C86 C87 H44 H45 H46 H47 H48 H49 N8  C88 C89 C90 C91 O21 C92 C93 C94 C95 N9  C96 
C97 C98 C99 H50 H51 H52 H53 H54 H55 H56 H57 O22 C100C101O23 C102C103C104C105O24 
C106C107C108C109C110O25 C111O26 C112C113C114C115H58 H59 H60 H61 H62 H63 N10 C116
C117C118C119O27 C120C121C122C123N11 C124C125C126C127H64 H65 H66 H67 H68 H69 H70 
H71 O28 C128C129O29 C130C131C132C133O30 C134C135C136C137C138O31 C139O32 C140C141
C142C143H72 H73 H74 H75 H76 H77 N12 C144C145C146C147O33 C148C149C150C151N13 C152
C153C154C155H78 H79 H80 H81 H82 H83 H84 H85 O34 C156C157O35 C158C159C160C161O36 
C162C163C164C165C166O37 C167O38 C168C169C170C171H86 H87 H88 H89 H90 H91 N14 C172
C173C174C175O39 C176C177C178C179N15 C180C181C182C183H92 H93 H94 H95 H96 H97 H98 
H99 O40 C184C185O41 C186C187C188C189O42 C190C191C192C193C194O43 C195O44 C196C197
C198C199H100H101H102H103H104H105N16 C200C201C202N17 C203C204C205O45 N18 C206C207
C208C209C210C211O46 C212O47 C213C214H106H107H108H109H110H111H112H113H114H115H116
H117H118O48 C215C216O49 C217C218C219C220O50 C221C222C223C224C225O51 C226O52 C227
C228C229C230H119H120H121H122H123H124N19 C231C232C233C234O53 C235C236C237C238N20 
C239C240C241C242H125H126H127H128H129H130H131H132H133H134
%FLAG CHARGE                                                                    
%FORMAT(5E16.8)                                                                 
 -6.52895898E+00  4.27076045E-01 -7.05895457E-01 -5.35753842E-01  1.49616016E+00
 -5.65738637E+00  1.49617839E+00 -5.34970283E-01 -6.81295352E-01  8.04970103E-01
 -3.67343346E+00 -6.81295352E-01 -5.34970283E-01 -5.35753842E-01 -7.05895457E-01
  2.59957510E+00  2.59957510E+00  1.17238634E+00  1.18689129E+00  1.18689129E+00
  1.17316990E+00  1.17316990E+00  1.18689129E+00  1.18689129E+00  1.17238634E+00
 -4.93498151E+00  4.69457470E+00  4.69284359E+00 -4.93499973E+00  9.26275954E-01
 -8.42088928E-01 -5.54121921E-01  1.50898866E+00 -5.65649348E+00  1.50898866E+00
 -5.54121921E-01 -8.42088928E-01  9.26275954E-01  4.69288003E+00 -4.93499973E+00
  4.69459293E+00 -4.93498151E+00  9.70501476E-01 -3.24848942E-01 -3.24848942E-01
  9.70501476E-01  1.15208670E+00  1.18608951E+00  1.18608951E+00  1.15208670E+00
  1.20130513E+00  1.20130513E+00 -3.67173878E+00  8.50380074E-01 -3.23044934E-01
  8.50380074E-01 -3.67173878E+00 -4.97268345E-01  7.43324062E-01  4.42847446E+00
 -4.95559093E+00 -5.66768197E+00  2.79256748E-01 -2.20562719E-01 -7.96041176E-01
 -1.02407504E+00 -5.30305375E-01  1.84440654E+00 -6.52762875E+00  1.84910789E+00
 -6.52748297E+00 -4.75602030E-01 -4.97268345E-01  1.20828427E+00  1.18663618E+00
  2.72773253E+00  8.57012991E-01  8.57012991E-01  6.05235472E-01  6.05235472E-01
  1.14190043E+00  1.18710996E+00  3.97934943E+00  3.97934943E+00  1.19230331E+00
  1.18663618E+00 -4.93498151E+00  4.69459293E+00  4.69288003E+00 -4.93499973E+00
  9.26275954E-01 -8.42088928E-01 -5.54121921E-01  1.50898866E+00 -5.65649348E+00
  1.50898866E+00 -5.54121921E-01 -8.42088928E-01  9.26275954E-01  4.69284359E+00
 -4.93499973E+00  4.69457470E+00 -4.93498151E+00  9.70501476E-01 -3.24848942E-01
 -3.24848942E-01  9.70501476E-01  1.15208670E+00  1.18608951E+00  1.18608951E+00
  1.15208670E+00  1.20130513E+00  1.20130513E+00 -3.67343346E+00  8.04970103E-01
 -6.81295352E-01 -5.34970283E-01  1.49617839E+00 -5.65738637E+00  1.49617839E+00
 -5.34970283E-01 -6.81295352E-01  8.04970103E-01 -3.67343346E+00 -6.81295352E-01
 -5.34970283E-01 -5.34970283E-01 -6.81295352E-01  1.17316990E+00  1.18689129E+00
  1.18689129E+00  1.17316990E+00  1.17316990E+00  1.18689129E+00  1.18689129E+00
  1.17316990E+00 -4.93498151E+00  4.69457470E+00  4.69284359E+00 -4.93499973E+00
  9.26275954E-01 -8.42088928E-01 -5.54121921E-01  1.50898866E+00 -5.65649348E+00
  1.50898866E+00 -5.54121921E-01 -8.42088928E-01  9.26275954E-01  4.69284359E+00
 -4.93499973E+00  4.69457470E+00 -4.93498151E+00  9.70501476E-01 -3.24848942E-01
 -3.24848942E-01  9.70501476E-01  1.15208670E+00  1.18608951E+00  1.18608951E+00
  1.15208670E+00  1.20130513E+00  1.20130513E+00 -3.67343346E+00  8.04970103E-01
 -6.81295352E-01 -5.34970283E-01  1.49617839E+00 -5.65738637E+00  1.49617839E+00
 -5.34970283E-01 -6.81295352E-01  8.04970103E-01 -3.67343346E+00 -6.81295352E-01
 -5.34970283E-01 -5.34970283E-01 -6.81295352E-01  1.17316990E+00  1.18689129E+00
  1.18689129E+00  1.17316990E+00  1.17316990E+00  1.18689129E+00  1.18689129E+00
  1.17316990E+00 -4.93498151E+00  4.69457470E+00  4.69284359E+00 -4.93499973E+00
  9.26275954E-01 -8.42088928E-01 -5.54121921E-01  1.50898866E+00 -5.65649348E+00
  1.50898866E+00 -5.54121921E-01 -8.42088928E-01  9.26275954E-01  4.69284359E+00
 -4.93499973E+00  4.69457470E+00 -4.93498151E+00  9.70501476E-01 -3.24848942E-01
 -3.24848942E-01  9.70501476E-01  1.15208670E+00  1.18608951E+00  1.18608951E+00
  1.15208670E+00  1.20130513E+00  1.20130513E+00 -3.67343346E+00  8.04970103E-01
 -6.81295352E-01 -5.34970283E-01  1.49617839E+00 -5.65738637E+00  1.49617839E+00
 -5.34970283E-01 -6.81295352E-01  8.04970103E-01 -3.67343346E+00 -6.81295352E-01
 -5.34970283E-01 -5.34970283E-01 -6.81295352E-01  1.17316990E+00  1.18689129E+00
  1.18689129E+00  1.17316990E+00  1.17316990E+00  1.18689129E+00  1.18689129E+00
  1.17316990E+00 -4.93498151E+00  4.69457470E+00  4.69284359E+00 -4.93499973E+00
  9.26275954E-01 -8.42088928E-01 -5.54121921E-01  1.50898866E+00 -5.65649348E+00
  1.50898866E+00 -5.54121921E-01 -8.42088928E-01  9.26275954E-01  4.69284359E+00
 -4.93499973E+00  4.69457470E+00 -4.93498151E+00  9.70501476E-01 -3.24848942E-01
 -3.24848942E-01  9.70501476E-01  1.15208670E+00  1.18608951E+00  1.18608951E+00
  1.15208670E+00  1.20130513E+00  1.20130513E+00 -3.67343346E+00  8.04970103E-01
 -6.81295352E-01 -5.34970283E-01  1.49617839E+00 -5.65738637E+00  1.49617839E+00
 -5.34970283E-01 -6.81295352E-01  8.04970103E-01 -3.67343346E+00 -6.81295352E-01
 -5.34970283E-01 -5.34970283E-01 -6.81295352E-01  1.17316990E+00  1.18689129E+00
  1.18689129E+00  1.17316990E+00  1.17316990E+00  1.18689129E+00  1.18689129E+00
  1.17316990E+00 -4.93498151E+00  4.69457470E+00  4.69284359E+00 -4.93499973E+00
  9.26275954E-01 -8.42088928E-01 -5.54121921E-01  1.50898866E+00 -5.65649348E+00
  1.50898866E+00 -5.54121921E-01 -8.42088928E-01  9.26275954E-01  4.69284359E+00
 -4.93499973E+00  4.69457470E+00 -4.93498151E+00  9.70501476E-01 -3.24848942E-01
 -3.24848942E-01  9.70501476E-01  1.15208670E+00  1.18608951E+00  1.18608951E+00
  1.15208670E+00  1.20130513E+00  1.20130513E+00 -3.67343346E+00  8.04970103E-01
 -6.81295352E-01 -5.34970283E-01  1.49617839E+00 -5.65738637E+00  1.49617839E+00
 -5.34970283E-01 -6.81295352E-01  8.04970103E-01 -3.67343346E+00 -6.81295352E-01
 -5.34970283E-01 -5.34970283E-01 -6.81295352E-01  1.17316990E+00  1.18689129E+00
  1.18689129E+00  1.17316990E+00  1.17316990E+00  1.18689129E+00  1.18689129E+00
  1.17316990E+00 -4.93498151E+00  4.69457470E+00  4.69284359E+00 -4.93499973E+00
  9.26275954E-01 -8.42088928E-01 -5.54121921E-01  1.50898866E+00 -5.65649348E+00
  1.50898866E+00 -5.54121921E-01 -8.42088928E-01  9.26275954E-01  4.69288003E+00
 -4.93499973E+00  4.69459293E+00 -4.93498151E+00  9.70501476E-01 -3.24848942E-01
 -3.24848942E-01  9.70501476E-01  1.15208670E+00  1.18608951E+00  1.18608951E+00
  1.15208670E+00  1.20130513E+00  1.20130513E+00 -3.67173878E+00  8.50380074E-01
 -3.23044934E-01  8.50380074E-01 -3.67173878E+00 -4.97268345E-01  7.43324062E-01
  4.42847446E+00 -4.95559093E+00 -5.66768197E+00  2.79256748E-01 -2.20562719E-01
 -7.96041176E-01 -1.02407504E+00 -5.30305375E-01  1.84440654E+00 -6.52762875E+00
  1.84910789E+00 -6.52748297E+00 -4.75602030E-01 -4.97268345E-01  1.20828427E+00
  1.18663618E+00  2.72773253E+00  8.57012991E-01  8.57012991E-01  6.05235472E-01
  6.05235472E-01  1.14190043E+00  1.18710996E+00  3.97934943E+00  3.97934943E+00
  1.19230331E+00  1.18663618E+00 -4.93498151E+00  4.69459293E+00  4.69288003E+00
 -4.93499973E+00  9.26275954E-01 -8.42088928E-01 -5.54121921E-01  1.50898866E+00
 -5.65649348E+00  1.50898866E+00 -5.54121921E-01 -8.42088928E-01  9.26275954E-01
  4.69284359E+00 -4.93499973E+00  4.69457470E+00 -4.93498151E+00  9.70501476E-01
 -3.24848942E-01 -3.24848942E-01  9.70501476E-01  1.15208670E+00  1.18608951E+00
  1.18608951E+00  1.15208670E+00  1.20130513E+00  1.20130513E+00 -3.67343346E+00
  8.04970103E-01 -6.81295352E-01 -5.34970283E-01  1.49617839E+00 -5.65738637E+00
  1.49616016E+00 -5.35753842E-01 -7.05895457E-01  4.27076045E-01 -6.52895898E+00
 -7.05895457E-01 -5.35753842E-01 -5.34970283E-01 -6.81295352E-01  1.17316990E+00
  1.18689129E+00  1.18689129E+00  1.17238634E+00  2.59957510E+00  2.59957510E+00
  1.17238634E+00  1.18689129E+00  1.18689129E+00  1.17316990E+00 -6.52895898E+00
  4.27076045E-01 -7.05895457E-01 -5.35753842E-01  1.49616016E+00 -5.65738637E+00
  1.49617839E+00 -5.34970283E-01 -6.81295352E-01  8.04970103E-01 -3.67343346E+00
 -6.81295352E-01 -5.34970283E-01 -5.35753842E-01 -7.05895457E-01  2.59957510E+00
  2.59957510E+00  1.17238634E+00  1.18689129E+00  1.18689129E+00  1.17316990E+00
  1.17316990E+00  1.18689129E+00  1.18689129E+00  1.17238634E+00 -4.93498151E+00
  4.69457470E+00  4.69284359E+00 -4.93499973E+00  9.26275954E-01 -8.42088928E-01
 -5.54121921E-01  1.50898866E+00 -5.65649348E+00  1.50898866E+00 -5.54121921E-01
 -8.42088928E-01  9.26275954E-01  4.69288003E+00 -4.93499973E+00  4.69459293E+00
 -4.93498151E+00  9.70501476E-01 -3.24848942E-01 -3.24848942E-01  9.70501476E-01
  1.15208670E+00  1.18608951E+00  1.18608951E+00  1.15208670E+00  1.20130513E+00
  1.20130513E+00 -3.67173878E+00  8.50380074E-01 -3.23044934E-01  8.50380074E-01
 -3.67173878E+00 -4.97268345E-01  7.43324062E-01  4.42847446E+00 -4.95559093E+00
 -5.66768197E+00  2.79256748E-01 -2.20562719E-01 -7.96041176E-01 -1.02407504E+00
 -5.30305375E-01  1.84440654E+00 -6.52762875E+00  1.84910789E+00 -6.52748297E+00
 -4.75602030E-01 -4.97268345E-01  1.20828427E+00  1.18663618E+00  2.72773253E+00
  8.57012991E-01  8.57012991E-01  6.05235472E-01  6.05235472E-01  1.14190043E+00
  1.18710996E+00  3.97934943E+00  3.97934943E+00  1.19230331E+00  1.18663618E+00
 -4.93498151E+00  4.69459293E+00  4.69288003E+00 -4.93499973E+00  9.26275954E-01
 -8.42088928E-01 -5.54121921E-01  1.50898866E+00 -5.65649348E+00  1.50898866E+00
 -5.54121921E-01 -8.42088928E-01  9.26275954E-01  4.69284359E+00 -4.93499973E+00
  4.69457470E+00 -4.93498151E+00  9.70501476E-01 -3.24848942E-01 -3.24848942E-01
  9.70501476E-01  1.15208670E+00  1.18608951E+00  1.18608951E+00  1.15208670E+00
  1.20130513E+00  1.20130513E+00 -3.67343346E+00  8.04970103E-01 -6.81295352E-01
 -5.34970283E-01  1.49617839E+00 -5.65738637E+00  1.49617839E+00 -5.34970283E-01
 -6.81295352E-01  8.04970103E-01 -3.67343346E+00 -6.81295352E-01 -5.34970283E-01
 -5.34970283E-01 -6.81295352E-01  1.17316990E+00  1.18689129E+00  1.18689129E+00
  1.17316990E+00  1.17316990E+00  1.18689129E+00  1.18689129E+00  1.17316990E+00
 -4.93498151E+00  4.69457470E+00  4.69284359E+00 -4.93499973E+00  9.26275954E-01
 -8.42088928E-01 -5.54121921E-01  1.50898866E+00 -5.65649348E+00  1.50898866E+00
 -5.54121921E-01 -8.42088928E-01  9.26275954E-01  4.69284359E+00 -4.93499973E+00
  4.69457470E+00 -4.93498151E+00  9.70501476E-01 -3.24848942E-01 -3.24848942E-01
  9.70501476E-01  1.15208670E+00  1.18608951E+00  1.18608951E+00  1.15208670E+00
  1.20130513E+00  1.20130513E+00 -3.67343346E+00  8.04970103E-01 -6.81295352E-01
 -5.34970283E-01  1.49617839E+00 -5.65738637E+00  1.49617839E+00 -5.34970283E-01
 -6.81295352E-01  8.04970103E-01 -3.67343346E+00 -6.81295352E-01 -5.34970283E-01
 -5.34970283E-01 -6.81295352E-01  1.17316990E+00  1.18689129E+00  1.18689129E+00
  1.17316990E+00  1.17316990E+00  1.18689129E+00  1.18689129E+00  1.17316990E+00
 -4.93498151E+00  4.69457470E+00  4.69284359E+00 -4.93499973E+00  9.26275954E-01
 -8.42088928E-01 -5.54121921E-01  1.50898866E+00 -5.65649348E+00  1.50898866E+00
 -5.54121921E-01 -8.42088928E-01  9.26275954E-01  4.69284359E+00 -4.93499973E+00
  4.69457470E+00 -4.93498151E+00  9.70501476E-01 -3.24848942E-01 -3.24848942E-01
  9.70501476E-01  1.15208670E+00  1.18608951E+00  1.18608951E+00  1.15208670E+00
  1.20130513E+00  1.20130513E+00 -3.67343346E+00  8.04970103E-01 -6.81295352E-01
 -5.34970283E-01  1.49617839E+00 -5.65738637E+00  1.49617839E+00 -5.34970283E-01
 -6.81295352E-01  8.04970103E-01 -3.67343346E+00 -6.81295352E-01 -5.34970283E-01
 -5.34970283E-01 -6.81295352E-01  1.17316990E+00  1.18689129E+00  1.18689129E+00
  1.17316990E+00  1.17316990E+00  1.18689129E+00  1.18689129E+00  1.17316990E+00
 -4.93498151E+00  4.69457470E+00  4.69284359E+00 -4.93499973E+00  9.26275954E-01
 -8.42088928E-01 -5.54121921E-01  1.50898866E+00 -5.65649348E+00  1.50898866E+00
 -5.54121921E-01 -8.42088928E-01  9.26275954E-01  4.69284359E+00 -4.93499973E+00
  4.69457470E+00 -4.93498151E+00  9.70501476E-01 -3.24848942E-01 -3.24848942E-01
  9.70501476E-01  1.15208670E+00  1.18608951E+00  1.18608951E+00  1.15208670E+00
  1.20130513E+00  1.20130513E+00 -3.67343346E+00  8.04970103E-01 -6.81295352E-01
 -5.34970283E-01  1.49617839E+00 -5.65738637E+00  1.49617839E+00 -5.34970283E-01
 -6.81295352E-01  8.04970103E-01 -3.67343346E+00 -6.81295352E-01 -5.34970283E-01
 -5.34970283E-01 -6.81295352E-01  1.17316990E+00  1.18689129E+00  1.18689129E+00
  1.17316990E+00  1.17316990E+00  1.18689129E+00  1.18689129E+00  1.17316990E+00
 -4.93498151E+00  4.69457470E+00  4.69284359E+00 -4.93499973E+00  9.26275954E-01
 -8.42088928E-01 -5.54121921E-01  1.50898866E+00 -5.65649348E+00  1.50898866E+00
 -5.54121921E-01 -8.42088928E-01  9.26275954E-01  4.69284359E+00 -4.93499973E+00
  4.69457470E+00 -4.93498151E+00  9.70501476E-01 -3.24848942E-01 -3.24848942E-01
  9.70501476E-01  1.15208670E+00  1.18608951E+00  1.18608951E+00  1.15208670E+00
  1.20130513E+00  1.20130513E+00 -3.67343346E+00  8.04970103E-01 -6.81295352E-01
 -5.34970283E-01  1.49617839E+00 -5.65738637E+00  1.49617839E+00 -5.34970283E-01
 -6.81295352E-01  8.04970103E-01 -3.67343346E+00 -6.81295352E-01 -5.34970283E-01
 -5.34970283E-01 -6.81295352E-01  1.17316990E+00  1.18689129E+00  1.18689129E+00
  1.17316990E+00  1.17316990E+00  1.18689129E+00  1.18689129E+00  1.17316990E+00
 -4.93498151E+00  4.69457470E+00  4.69284359E+00 -4.93499973E+00  9.26275954E-01
 -8.42088928E-01 -5.54121921E-01  1.50898866E+00 -5.65649348E+00  1.50898866E+00
 -5.54121921E-01 -8.42088928E-01  9.26275954E-01  4.69288003E+00 -4.93499973E+00
  4.69459293E+00 -4.93498151E+00  9.70501476E-01 -3.24848942E-01 -3.24848942E-01
  9.70501476E-01  1.15208670E+00  1.18608951E+00  1.18608951E+00  1.15208670E+00
  1.20130513E+00  1.20130513E+00 -3.67173878E+00  8.50380074E-01 -3.23044934E-01
  8.50380074E-01 -3.67173878E+00 -4.97268345E-01  7.43324062E-01  4.42847446E+00
 -4.95559093E+00 -5.66768197E+00  2.79256748E-01 -2.20562719E-01 -7.96041176E-01
 -1.02407504E+00 -5.30305375E-01  1.84440654E+00 -6.52762875E+00  1.84910789E+00
 -6.52748297E+00 -4.75602030E-01 -4.97268345E-01  1.20828427E+00  1.18663618E+00
  2.72773253E+00  8.57012991E-01  8.57012991E-01  6.05235472E-01  6.05235472E-01
  1.14190043E+00  1.18710996E+00  3.97934943E+00  3.97934943E+00  1.19230331E+00
  1.18663618E+00 -4.93498151E+00  4.69459293E+00  4.69288003E+00 -4.93499973E+00
  9.26275954E-01 -8.42088928E-01 -5.54121921E-01  1.50898866E+00 -5.65649348E+00
  1.50898866E+00 -5.54121921E-01 -8.42088928E-01  9.26275954E-01  4.69284359E+00
 -4.93499973E+00  4.69457470E+00 -4.93498151E+00  9.70501476E-01 -3.24848942E-01
 -3.24848942E-01  9.70501476E-01  1.15208670E+00  1.18608951E+00  1.18608951E+00
  1.15208670E+00  1.20130513E+00  1.20130513E+00 -3.67343346E+00  8.04970103E-01
 -6.81295352E-01 -5.34970283E-01  1.49617839E+00 -5.65738637E+00  1.49616016E+00
 -5.35753842E-01 -7.05895457E-01  4.27076045E-01 -6.52895898E+00 -7.05895457E-01
 -5.35753842E-01 -5.34970283E-01 -6.81295352E-01  1.17316990E+00  1.18689129E+00
  1.18689129E+00  1.17238634E+00  2.59957510E+00  2.59957510E+00  1.17238634E+00
  1.18689129E+00  1.18689129E+00  1.17316990E+00 -6.52895898E+00  4.27076045E-01
 -7.05895457E-01 -5.35753842E-01  1.49616016E+00 -5.65738637E+00  1.49617839E+00
 -5.34970283E-01 -6.81295352E-01  8.04970103E-01 -3.67343346E+00 -6.81295352E-01
 -5.34970283E-01 -5.35753842E-01 -7.05895457E-01  2.59957510E+00  2.59957510E+00
  1.17238634E+00  1.18689129E+00  1.18689129E+00  1.17316990E+00  1.17316990E+00
  1.18689129E+00  1.18689129E+00  1.17238634E+00 -4.93498151E+00  4.69457470E+00
  4.69284359E+00 -4.93499973E+00  9.26275954E-01 -8.42088928E-01 -5.54121921E-01
  1.50898866E+00 -5.65649348E+00  1.50898866E+00 -5.54121921E-01 -8.42088928E-01
  9.26275954E-01  4.69288003E+00 -4.93499973E+00  4.69459293E+00 -4.93498151E+00
  9.70501476E-01 -3.24848942E-01 -3.24848942E-01  9.70501476E-01  1.15208670E+00
  1.18608951E+00  1.18608951E+00  1.15208670E+00  1.20130513E+00  1.20130513E+00
 -3.67173878E+00  8.50380074E-01 -3.23044934E-01  8.50380074E-01 -3.67173878E+00
 -4.97268345E-01  7.43324062E-01  4.42847446E+00 -4.95559093E+00 -5.66768197E+00
  2.79256748E-01 -2.20562719E-01 -7.96041176E-01 -1.02407504E+00 -5.30305375E-01
  1.84440654E+00 -6.52762875E+00  1.84910789E+00 -6.52748297E+00 -4.75602030E-01
 -4.97268345E-01  1.20828427E+00  1.18663618E+00  2.72773253E+00  8.57012991E-01
  8.57012991E-01  6.05235472E-01  6.05235472E-01  1.14190043E+00  1.18710996E+00
  3.97934943E+00  3.97934943E+00  1.19230331E+00  1.18663618E+00 -4.93498151E+00
  4.69459293E+00  4.69288003E+00 -4.93499973E+00  9.26275954E-01 -8.42088928E-01
 -5.54121921E-01  1.50898866E+00 -5.65649348E+00  1.50898866E+00 -5.54121921E-01
 -8.42088928E-01  9.26275954E-01  4.69284359E+00 -4.93499973E+00  4.69457470E+00
 -4.93498151E+00  9.70501476E-01 -3.24848942E-01 -3.24848942E-01  9.70501476E-01
  1.15208670E+00  1.18608951E+00  1.18608951E+00  1.15208670E+00  1.20130513E+00
  1.20130513E+00 -3.67343346E+00  8.04970103E-01 -6.81295352E-01 -5.34970283E-01
  1.49617839E+00 -5.65738637E+00  1.49617839E+00 -5.34970283E-01 -6.81295352E-01
  8.04970103E-01 -3.67343346E+00 -6.81295352E-01 -5.34970283E-01 -5.34970283E-01
 -6.81295352E-01  1.17316990E+00  1.18689129E+00  1.18689129E+00  1.17316990E+00
  1.17316990E+00  1.18689129E+00  1.18689129E+00  1.17316990E+00 -4.93498151E+00
  4.69457470E+00  4.69284359E+00 -4.93499973E+00  9.26275954E-01 -8.42088928E-01
 -5.54121921E-01  1.50898866E+00 -5.65649348E+00  1.50898866E+00 -5.54121921E-01
 -8.42088928E-01  9.26275954E-01  4.69284359E+00 -4.93499973E+00  4.69457470E+00
 -4.93498151E+00  9.70501476E-01 -3.24848942E-01 -3.24848942E-01  9.70501476E-01
  1.15208670E+00  1.18608951E+00  1.18608951E+00  1.15208670E+00  1.20130513E+00
  1.20130513E+00 -3.67343346E+00  8.04970103E-01 -6.81295352E-01 -5.34970283E-01
  1.49617839E+00 -5.65738637E+00  1.49617839E+00 -5.34970283E-01 -6.81295352E-01
  8.04970103E-01 -3.67343346E+00 -6.81295352E-01 -5.34970283E-01 -5.34970283E-01
 -6.81295352E-01  1.17316990E+00  1.18689129E+00  1.18689129E+00  1.17316990E+00
  1.17316990E+00  1.18689129E+00  1.18689129E+00  1.17316990E+00 -4.93498151E+00
  4.69457470E+00  4.69284359E+00 -4.93499973E+00  9.26275954E-01 -8.42088928E-01
 -5.54121921E-01  1.50898866E+00 -5.65649348E+00  1.50898866E+00 -5.54121921E-01
 -8.42088928E-01  9.26275954E-01  4.69284359E+00 -4.93499973E+00  4.69457470E+00
 -4.93498151E+00  9.70501476E-01 -3.24848942E-01 -3.24848942E-01  9.70501476E-01
  1.15208670E+00  1.18608951E+00  1.18608951E+00  1.15208670E+00  1.20130513E+00
  1.20130513E+00 -3.67343346E+00  8.04970103E-01 -6.81295352E-01 -5.34970283E-01
  1.49617839E+00 -5.65738637E+00  1.49617839E+00 -5.34970283E-01 -6.81295352E-01
  8.04970103E-01 -3.67343346E+00 -6.81295352E-01 -5.34970283E-01 -5.34970283E-01
 -6.81295352E-01  1.17316990E+00  1.18689129E+00  1.18689129E+00  1.17316990E+00
  1.17316990E+00  1.18689129E+00  1.18689129E+00  1.17316990E+00 -4.93498151E+00
  4.69457470E+00  4.69284359E+00 -4.93499973E+00  9.26275954E-01 -8.42088928E-01
 -5.54121921E-01  1.50898866E+00 -5.65649348E+00  1.50898866E+00 -5.54121921E-01
 -8.42088928E-01  9.26275954E-01  4.69284359E+00 -4.93499973E+00  4.69457470E+00
 -4.93498151E+00  9.70501476E-01 -3.24848942E-01 -3.24848942E-01  9.70501476E-01
  1.15208670E+00  1.18608951E+00  1.18608951E+00  1.15208670E+00  1.20130513E+00
  1.20130513E+00 -3.67343346E+00  8.04970103E-01 -6.81295352E-01 -5.34970283E-01
  1.49617839E+00 -5.65738637E+00  1.49617839E+00 -5.34970283E-01 -6.81295352E-01
  8.04970103E-01 -3.67343346E+00 -6.81295352E-01 -5.34970283E-01 -5.34970283E-01
 -6.81295352E-01  1.17316990E+00  1.18689129E+00  1.18689129E+00  1.17316990E+00
  1.17316990E+00  1.18689129E+00  1.18689129E+00  1.17316990E+00 -4.93498151E+00
  4.69457470E+00  4.69284359E+00 -4.93499973E+00  9.26275954E-01 -8.42088928E-01
 -5.54121921E-01  1.50898866E+00 -5.65649348E+00  1.50898866E+00 -5.54121921E-01
 -8.42088928E-01  9.26275954E-01  4.69284359E+00 -4.93499973E+00  4.69457470E+00
 -4.93498151E+00  9.70501476E-01 -3.24848942E-01 -3.24848942E-01  9.70501476E-01
  1.15208670E+00  1.18608951E+00  1.18608951E+00  1.15208670E+00  1.20130513E+00
  1.20130513E+00 -3.67343346E+00  8.04970103E-01 -6.81295352E-01 -5.34970283E-01
  1.49617839E+00 -5.65738637E+00  1.49617839E+00 -5.34970283E-01 -6.81295352E-01
  8.04970103E-01 -3.67343346E+00 -6.81295352E-01 -5.34970283E-01 -5.34970283E-01
 -6.81295352E-01  1.17316990E+00  1.18689129E+00  1.18689129E+00  1.17316990E+00
  1.17316990E+00  1.18689129E+00  1.18689129E+00  1.17316990E+00 -4.93498151E+00
  4.69457470E+00  4.69284359E+00 -4.93499973E+00  9.26275954E-01 -8.42088928E-01
 -5.54121921E-01  1.50898866E+00 -5.65649348E+00  1.50898866E+00 -5.54121921E-01
 -8.42088928E-01  9.26275954E-01  4.69288003E+00 -4.93499973E+00  4.69459293E+00
 -4.93498151E+00  9.70501476E-01 -3.24848942E-01 -3.24848942E-01  9.70501476E-01
  1.15208670E+00  1.18608951E+00  1.18608951E+00  1.15208670E+00  1.20130513E+00
  1.20130513E+00 -3.67173878E+00  8.50380074E-01 -3.23044934E-01  8.50380074E-01
 -3.67173878E+00 -4.97268345E-01  7.43324062E-01  4.42847446E+00 -4.95559093E+00
 -5.66768197E+00  2.79256748E-01 -2.20562719E-01 -7.96041176E-01 -1.02407504E+00
 -5.30305375E-01  1.84440654E+00 -6.52762875E+00  1.84910789E+00 -6.52748297E+00
 -4.75602030E-01 -4.97268345E-01  1.20828427E+00  1.18663618E+00  2.72773253E+00
  8.57012991E-01  8.57012991E-01  6.05235472E-01  6.05235472E-01  1.14190043E+00
  1.18710996E+00  3.97934943E+00  3.97934943E+00  1.19230331E+00  1.18663618E+00
 -4.93498151E+00  4.69459293E+00  4.69288003E+00 -4.93499973E+00  9.26275954E-01
 -8.42088928E-01 -5.54121921E-01  1.50898866E+00 -5.65649348E+00  1.50898866E+00
 -5.54121921E-01 -8.42088928E-01  9.26275954E-01  4.69284359E+00 -4.93499973E+00
  4.69457470E+00 -4.93498151E+00  9.70501476E-01 -3.24848942E-01 -3.24848942E-01
  9.70501476E-01  1.15208670E+00  1.18608951E+00  1.18608951E+00  1.15208670E+00
  1.20130513E+00  1.20130513E+00 -3.67343346E+00  8.04970103E-01 -6.81295352E-01
 -5.34970283E-01  1.49617839E+00 -5.65738637E+00  1.49616016E+00 -5.35753842E-01
 -7.05895457E-01  4.27076045E-01 -6.52895898E+00 -7.05895457E-01 -5.35753842E-01
 -5.34970283E-01 -6.81295352E-01  1.17316990E+00  1.18689129E+00  1.18689129E+00
  1.17238634E+00  2.59957510E+00  2.59957510E+00  1.17238634E+00  1.18689129E+00
  1.18689129E+00  1.17316990E+00 -6.52895898E+00  4.27076045E-01 -7.05895457E-01
 -5.35753842E-01  1.49616016E+00 -5.65738637E+00  1.49617839E+00 -5.34970283E-01
 -6.81295352E-01  8.04970103E-01 -3.67343346E+00 -6.81295352E-01 -5.34970283E-01
 -5.35753842E-01 -7.05895457E-01  2.59957510E+00  2.59957510E+00  1.17238634E+00
  1.18689129E+00  1.18689129E+00  1.17316990E+00  1.17316990E+00  1.18689129E+00
  1.18689129E+00  1.17238634E+00 -4.93498151E+00  4.69457470E+00  4.69284359E+00
 -4.93499973E+00  9.26275954E-01 -8.42088928E-01 -5.54121921E-01  1.50898866E+00
 -5.65649348E+00  1.50898866E+00 -5.54121921E-01 -8.42088928E-01  9.26275954E-01
  4.69288003E+00 -4.93499973E+00  4.69459293E+00 -4.93498151E+00  9.70501476E-01
 -3.24848942E-01 -3.24848942E-01  9.70501476E-01  1.15208670E+00  1.18608951E+00
  1.18608951E+00  1.15208670E+00  1.20130513E+00  1.20130513E+00 -3.67173878E+00
  8.50380074E-01 -3.23044934E-01  8.50380074E-01 -3.67173878E+00 -4.97268345E-01
  7.43324062E-01  4.42847446E+00 -4.95559093E+00 -5.66768197E+00  2.79256748E-01
 -2.20562719E-01 -7.96041176E-01 -1.02407504E+00 -5.30305375E-01  1.84440654E+00
 -6.52762875E+00  1.84910789E+00 -6.52748297E+00 -4.75602030E-01 -4.97268345E-01
  1.20828427E+00  1.18663618E+00  2.72773253E+00  8.57012991E-01  8.57012991E-01
  6.05235472E-01  6.05235472E-01  1.14190043E+00  1.18710996E+00  3.97934943E+00
  3.97934943E+00  1.19230331E+00  1.18663618E+00 -4.93498151E+00  4.69459293E+00
  4.69288003E+00 -4.93499973E+00  9.26275954E-01 -8.42088928E-01 -5.54121921E-01
  1.50898866E+00 -5.65649348E+00  1.50898866E+00 -5.54121921E-01 -8.42088928E-01
  9.26275954E-01  4.69284359E+00 -4.93499973E+00  4.69457470E+00 -4.93498151E+00
  9.70501476E-01 -3.24848942E-01 -3.24848942E-01  9.70501476E-01  1.15208670E+00
  1.18608951E+00  1.18608951E+00  1.15208670E+00  1.20130513E+00  1.20130513E+00
 -3.67343346E+00  8.04970103E-01 -6.81295352E-01 -5.34970283E-01  1.49617839E+00
 -5.65738637E+00  1.49617839E+00 -5.34970283E-01 -6.81295352E-01  8.04970103E-01
 -3.67343346E+00 -6.81295352E-01 -5.34970283E-01 -5.34970283E-01 -6.81295352E-01
  1.17316990E+00  1.18689129E+00  1.18689129E+00  1.17316990E+00  1.17316990E+00
  1.18689129E+00  1.18689129E+00  1.17316990E+00 -4.93498151E+00  4.69457470E+00
  4.69284359E+00 -4.93499973E+00  9.26275954E-01 -8.42088928E-01 -5.54121921E-01
  1.50898866E+00 -5.65649348E+00  1.50898866E+00 -5.54121921E-01 -8.42088928E-01
  9.26275954E-01  4.69284359E+00 -4.93499973E+00  4.69457470E+00 -4.93498151E+00
  9.70501476E-01 -3.24848942E-01 -3.24848942E-01  9.70501476E-01  1.15208670E+00
  1.18608951E+00  1.18608951E+00  1.15208670E+00  1.20130513E+00  1.20130513E+00
 -3.67343346E+00  8.04970103E-01 -6.81295352E-01 -5.34970283E-01  1.49617839E+00
 -5.65738637E+00  1.49617839E+00 -5.34970283E-01 -6.81295352E-01  8.04970103E-01
 -3.67343346E+00 -6.81295352E-01 -5.34970283E-01 -5.34970283E-01 -6.81295352E-01
  1.17316990E+00  1.18689129E+00  1.18689129E+00  1.17316990E+00  1.17316990E+00
  1.18689129E+00  1.18689129E+00  1.17316990E+00 -4.93498151E+00  4.69457470E+00
  4.69284359E+00 -4.93499973E+00  9.26275954E-01 -8.42088928E-01 -5.54121921E-01
  1.50898866E+00 -5.65649348E+00  1.50898866E+00 -5.54121921E-01 -8.42088928E-01
  9.26275954E-01  4.69284359E+00 -4.93499973E+00  4.69457470E+00 -4.93498151E+00
  9.70501476E-01 -3.24848942E-01 -3.24848942E-01  9.70501476E-01  1.15208670E+00
  1.18608951E+00  1.18608951E+00  1.15208670E+00  1.20130513E+00  1.20130513E+00
 -3.67343346E+00  8.04970103E-01 -6.81295352E-01 -5.34970283E-01  1.49617839E+00
 -5.65738637E+00  1.49617839E+00 -5.34970283E-01 -6.81295352E-01  8.04970103E-01
 -3.67343346E+00 -6.81295352E-01 -5.34970283E-01 -5.34970283E-01 -6.81295352E-01
  1.17316990E+00  1.18689129E+00  1.18689129E+00  1.17316990E+00  1.17316990E+00
  1.18689129E+00  1.18689129E+00  1.17316990E+00 -4.93498151E+00  4.69457470E+00
  4.69284359E+00 -4.93499973E+00  9.26275954E-01 -8.42088928E-01 -5.54121921E-01
  1.50898866E+00 -5.65649348E+00  1.50898866E+00 -5.54121921E-01 -8.42088928E-01
  9.26275954E-01  4.69284359E+00 -4.93499973E+00  4.69457470E+00 -4.93498151E+00
  9.70501476E-01 -3.24848942E-01 -3.24848942E-01  9.70501476E-01  1.15208670E+00
  1.18608951E+00  1.18608951E+00  1.15208670E+00  1.20130513E+00  1.20130513E+00
 -3.67343346E+00  8.04970103E-01 -6.81295352E-01 -5.34970283E-01  1.49617839E+00
 -5.65738637E+00  1.49617839E+00 -5.34970283E-01 -6.81295352E-01  8.04970103E-01
 -3.67343346E+00 -6.81295352E-01 -5.34970283E-01 -5.34970283E-01 -6.81295352E-01
  1.17316990E+00  1.18689129E+00  1.18689129E+00  1.17316990E+00  1.17316990E+00
  1.18689129E+00  1.18689129E+00  1.17316990E+00 -4.93498151E+00  4.69457470E+00
  4.69284359E+00 -4.93499973E+00  9.26275954E-01 -8.42088928E-01 -5.54121921E-01
  1.50898866E+00 -5.65649348E+00  1.50898866E+00 -5.54121921E-01 -8.42088928E-01
  9.26275954E-01  4.69284359E+00 -4.93499973E+00  4.69457470E+00 -4.93498151E+00
  9.70501476E-01 -3.24848942E-01 -3.24848942E-01  9.70501476E-01  1.15208670E+00
  1.18608951E+00  1.18608951E+00  1.15208670E+00  1.20130513E+00  1.20130513E+00
 -3.67343346E+00  8.04970103E-01 -6.81295352E-01 -5.34970283E-01  1.49617839E+00
 -5.65738637E+00  1.49617839E+00 -5.34970283E-01 -6.81295352E-01  8.04970103E-01
 -3.67343346E+00 -6.81295352E-01 -5.34970283E-01 -5.34970283E-01 -6.81295352E-01
  1.17316990E+00  1.18689129E+00  1.18689129E+00  1.17316990E+00  1.17316990E+00
  1.18689129E+00  1.18689129E+00  1.17316990E+00 -4.93498151E+00  4.69457470E+00
  4.69284359E+00 -4.93499973E+00  9.26275954E-01 -8.42088928E-01 -5.54121921E-01
  1.50898866E+00 -5.65649348E+00  1.50898866E+00 -5.54121921E-01 -8.42088928E-01
  9.26275954E-01  4.69288003E+00 -4.93499973E+00  4.69459293E+00 -4.93498151E+00
  9.70501476E-01 -3.24848942E-01 -3.24848942E-01  9.70501476E-01  1.15208670E+00
  1.18608951E+00  1.18608951E+00  1.15208670E+00  1.20130513E+00  1.20130513E+00
 -3.67173878E+00  8.50380074E-01 -3.23044934E-01  8.50380074E-01 -3.67173878E+00
 -4.97268345E-01  7.43324062E-01  4.42847446E+00 -4.95559093E+00 -5.66768197E+00
  2.79256748E-01 -2.20562719E-01 -7.96041176E-01 -1.02407504E+00 -5.30305375E-01
  1.84440654E+00 -6.52762875E+00  1.84910789E+00 -6.52748297E+00 -4.75602030E-01
 -4.97268345E-01  1.20828427E+00  1.18663618E+00  2.72773253E+00  8.57012991E-01
  8.57012991E-01  6.05235472E-01  6.05235472E-01  1.14190043E+00  1.18710996E+00
  3.97934943E+00  3.97934943E+00  1.19230331E+00  1.18663618E+00 -4.93498151E+00
  4.69459293E+00  4.69288003E+00 -4.93499973E+00  9.26275954E-01 -8.42088928E-01
 -5.54121921E-01  1.50898866E+00 -5.65649348E+00  1.50898866E+00 -5.54121921E-01
 -8.42088928E-01  9.26275954E-01  4.69284359E+00 -4.93499973E+00  4.69457470E+00
 -4.93498151E+00  9.70501476E-01 -3.24848942E-01 -3.24848942E-01  9.70501476E-01
  1.15208670E+00  1.18608951E+00  1.18608951E+00  1.15208670E+00  1.20130513E+00
  1.20130513E+00 -3.67343346E+00  8.04970103E-01 -6.81295352E-01 -5.34970283E-01
  1.49617839E+00 -5.65738637E+00  1.49616016E+00 -5.35753842E-01 -7.05895457E-01
  4.27076045E-01 -6.52895898E+00 -7.05895457E-01 -5.35753842E-01 -5.34970283E-01
 -6.81295352E-01  1.17316990E+00  1.18689129E+00  1.18689129E+00  1.17238634E+00
  2.59957510E+00  2.59957510E+00  1.17238634E+00  1.18689129E+00  1.18689129E+00
  1.17316990E+00 -6.52895898E+00  4.27076045E-01 -7.05895457E-01 -5.35753842E-01
  1.49616016E+00 -5.65738637E+00  1.49617839E+00 -5.34970283E-01 -6.81295352E-01
  8.04970103E-01 -3.67343346E+00 -6.81295352E-01 -5.34970283E-01 -5.35753842E-01
 -7.05895457E-01  2.59957510E+00  2.59957510E+00  1.17238634E+00  1.18689129E+00
  1.18689129E+00  1.17316990E+00  1.17316990E+00  1.18689129E+00  1.18689129E+00
  1.17238634E+00 -4.93498151E+00  4.69457470E+00  4.69284359E+00 -4.93499973E+00
  9.26275954E-01 -8.42088928E-01 -5.54121921E-01  1.50898866E+00 -5.65649348E+00
  1.50898866E+00 -5.54121921E-01 -8.42088928E-01  9.26275954E-01  4.69288003E+00
 -4.93499973E+00  4.69459293E+00 -4.93498151E+00  9.70501476E-01 -3.24848942E-01
 -3.24848942E-01  9.70501476E-01  1.15208670E+00  1.18608951E+00  1.18608951E+00
  1.15208670E+00  1.20130513E+00  1.20130513E+00 -3.67173878E+00  8.50380074E-01
 -3.23044934E-01  8.50380074E-01 -3.67173878E+00 -4.97268345E-01  7.43324062E-01
  4.42847446E+00 -4.95559093E+00 -5.66768197E+00  2.79256748E-01 -2.20562719E-01
 -7.96041176E-01 -1.02407504E+00 -5.30305375E-01  1.84440654E+00 -6.52762875E+00
  1.84910789E+00 -6.52748297E+00 -4.75602030E-01 -4.97268345E-01  1.20828427E+00
  1.18663618E+00  2.72773253E+00  8.57012991E-01  8.57012991E-01  6.05235472E-01
  6.05235472E-01  1.14190043E+00  1.18710996E+00  3.97934943E+00  3.97934943E+00
  1.19230331E+00  1.18663618E+00 -4.93498151E+00  4.69459293E+00  4.69288003E+00
 -4.93499973E+00  9.26275954E-01 -8.42088928E-01 -5.54121921E-01  1.50898866E+00
 -5.65649348E+00  1.50898866E+00 -5.54121921E-01 -8.42088928E-01  9.26275954E-01
  4.69284359E+00 -4.93499973E+00  4.69457470E+00 -4.93498151E+00  9.70501476E-01
 -3.24848942E-01 -3.24848942E-01  9.70501476E-01  1.15208670E+00  1.18608951E+00
  1.18608951E+00  1.15208670E+00  1.20130513E+00  1.20130513E+00 -3.67343346E+00
  8.04970103E-01 -6.81295352E-01 -5.34970283E-01  1.49617839E+00 -5.65738637E+00
  1.49617839E+00 -5.34970283E-01 -6.81295352E-01  8.04970103E-01 -3.67343346E+00
 -6.81295352E-01 -5.34970283E-01 -5.34970283E-01 -6.81295352E-01  1.17316990E+00
  1.18689129E+00  1.18689129E+00  1.17316990E+00  1.17316990E+00  1.18689129E+00
  1.18689129E+00  1.17316990E+00 -4.93498151E+00  4.69457470E+00  4.69284359E+00
 -4.93499973E+00  9.26275954E-01 -8.42088928E-01 -5.54121921E-01  1.50898866E+00
 -5.65649348E+00  1.50898866E+00 -5.54121921E-01 -8.42088928E-01  9.26275954E-01
  4.69284359E+00 -4.93499973E+00  4.69457470E+00 -4.93498151E+00  9.70501476E-01
 -3.24848942E-01 -3.24848942E-01  9.70501476E-01  1.15208670E+00  1.18608951E+00
  1.18608951E+00  1.15208670E+00  1.20130513E+00  1.20130513E+00 -3.67343346E+00
  8.04970103E-01 -6.81295352E-01 -5.34970283E-01  1.49617839E+00 -5.65738637E+00
  1.49617839E+00 -5.34970283E-01 -6.81295352E-01  8.04970103E-01 -3.67343346E+00
 -6.81295352E-01 -5.34970283E-01 -5.34970283E-01 -6.81295352E-01  1.17316990E+00
  1.18689129E+00  1.18689129E+00  1.17316990E+00  1.17316990E+00  1.18689129E+00
  1.18689129E+00  1.17316990E+00 -4.93498151E+00  4.69457470E+00  4.69284359E+00
 -4.93499973E+00  9.26275954E-01 -8.42088928E-01 -5.54121921E-01  1.50898866E+00
 -5.65649348E+00  1.50898866E+00 -5.54121921E-01 -8.42088928E-01  9.26275954E-01
  4.69284359E+00 -4.93499973E+00  4.69457470E+00 -4.93498151E+00  9.70501476E-01
 -3.24848942E-01 -3.24848942E-01  9.70501476E-01  1.15208670E+00  1.18608951E+00
  1.18608951E+00  1.15208670E+00  1.20130513E+00  1.20130513E+00 -3.67343346E+00
  8.04970103E-01 -6.81295352E-01 -5.34970283E-01  1.49617839E+00 -5.65738637E+00
  1.49617839E+00 -5.34970283E-01 -6.81295352E-01  8.04970103E-01 -3.67343346E+00
 -6.81295352E-01 -5.34970283E-01 -5.34970283E-01 -6.81295352E-01  1.17316990E+00
  1.18689129E+00  1.18689129E+00  1.17316990E+00  1.17316990E+00  1.18689129E+00
  1.18689129E+00  1.17316990E+00 -4.93498151E+00  4.69457470E+00  4.69284359E+00
 -4.93499973E+00  9.26275954E-01 -8.42088928E-01 -5.54121921E-01  1.50898866E+00
 -5.65649348E+00  1.50898866E+00 -5.54121921E-01 -8.42088928E-01  9.26275954E-01
  4.69284359E+00 -4.93499973E+00  4.69457470E+00 -4.93498151E+00  9.70501476E-01
 -3.24848942E-01 -3.24848942E-01  9.70501476E-01  1.15208670E+00  1.18608951E+00
  1.18608951E+00  1.15208670E+00  1.20130513E+00  1.20130513E+00 -3.67343346E+00
  8.04970103E-01 -6.81295352E-01 -5.34970283E-01  1.49617839E+00 -5.65738637E+00
  1.49617839E+00 -5.34970283E-01 -6.81295352E-01  8.04970103E-01 -3.67343346E+00
 -6.81295352E-01 -5.34970283E-01 -5.34970283E-01 -6.81295352E-01  1.17316990E+00
  1.18689129E+00  1.18689129E+00  1.17316990E+00  1.17316990E+00  1.18689129E+00
  1.18689129E+00  1.17316990E+00 -4.93498151E+00  4.69457470E+00  4.69284359E+00
 -4.93499973E+00  9.26275954E-01 -8.42088928E-01 -5.54121921E-01  1.50898866E+00
 -5.65649348E+00  1.50898866E+00 -5.54121921E-01 -8.42088928E-01  9.26275954E-01
  4.69284359E+00 -4.93499973E+00  4.69457470E+00 -4.93498151E+00  9.70501476E-01
 -3.24848942E-01 -3.24848942E-01  9.70501476E-01  1.15208670E+00  1.18608951E+00
  1.18608951E+00  1.15208670E+00  1.20130513E+00  1.20130513E+00 -3.67343346E+00
  8.04970103E-01 -6.81295352E-01 -5.34970283E-01  1.49617839E+00 -5.65738637E+00
  1.49617839E+00 -5.34970283E-01 -6.81295352E-01  8.04970103E-01 -3.67343346E+00
 -6.81295352E-01 -5.34970283E-01 -5.34970283E-01 -6.81295352E-01  1.17316990E+00
  1.18689129E+00  1.18689129E+00  1.17316990E+00  1.17316990E+00  1.18689129E+00
  1.18689129E+00  1.17316990E+00 -4.93498151E+00  4.69457470E+00  4.69284359E+00
 -4.93499973E+00  9.26275954E-01 -8.42088928E-01 -5.54121921E-01  1.50898866E+00
 -5.65649348E+00  1.50898866E+00 -5.54121921E-01 -8.42088928E-01  9.26275954E-01
  4.69288003E+00 -4.93499973E+00  4.69459293E+00 -4.93498151E+00  9.70501476E-01
 -3.24848942E-01 -3.24848942E-01  9.70501476E-01  1.15208670E+00  1.18608951E+00
  1.18608951E+00  1.15208670E+00  1.20130513E+00  1.20130513E+00 -3.67173878E+00
  8.50380074E-01 -3.23044934E-01  8.50380074E-01 -3.67173878E+00 -4.97268345E-01
  7.43324062E-01  4.42847446E+00 -4.95559093E+00 -5.66768197E+00  2.79256748E-01
 -2.20562719E-01 -7.96041176E-01 -1.02407504E+00 -5.30305375E-01  1.84440654E+00
 -6.52762875E+00  1.84910789E+00 -6.52748297E+00 -4.75602030E-01 -4.97268345E-01
  1.20828427E+00  1.18663618E+00  2.72773253E+00  8.57012991E-01  8.57012991E-01
  6.05235472E-01  6.05235472E-01  1.14190043E+00  1.18710996E+00  3.97934943E+00
  3.97934943E+00  1.19230331E+00  1.18663618E+00 -4.93498151E+00  4.69459293E+00
  4.69288003E+00 -4.93499973E+00  9.26275954E-01 -8.42088928E-01 -5.54121921E-01
  1.50898866E+00 -5.65649348E+00  1.50898866E+00 -5.54121921E-01 -8.42088928E-01
  9.26275954E-01  4.69284359E+00 -4.93499973E+00  4.69457470E+00 -4.93498151E+00
  9.70501476E-01 -3.24848942E-01 -3.24848942E-01  9.70501476E-01  1.15208670E+00
  1.18608951E+00  1.18608951E+00  1.15208670E+00  1.20130513E+00  1.20130513E+00
 -3.67343346E+00  8.04970103E-01 -6.81295352E-01 -5.34970283E-01  1.49617839E+00
 -5.65738637E+00  1.49616016E+00 -5.35753842E-01 -7.05895457E-01  4.27076045E-01
 -6.52895898E+00 -7.05895457E-01 -5.35753842E-01 -5.34970283E-01 -6.81295352E-01
  1.17316990E+00  1.18689129E+00  1.18689129E+00  1.17238634E+00  2.59957510E+00
  2.59957510E+00  1.17238634E+00  1.18689129E+00  1.18689129E+00  1.17316990E+00
 -6.52895898E+00  4.27076045E-01 -7.05895457E-01 -5.35753842E-01  1.49616016E+00
 -5.65738637E+00  1.49617839E+00 -5.34970283E-01 -6.81295352E-01  8.04970103E-01
 -3.67343346E+00 -6.81295352E-01 -5.34970283E-01 -5.35753842E-01 -7.05895457E-01
  2.59957510E+00  2.59957510E+00  1.17238634E+00  1.18689129E+00  1.18689129E+00
  1.17316990E+00  1.17316990E+00  1.18689129E+00  1.18689129E+00  1.17238634E+00
 -4.93498151E+00  4.69457470E+00  4.69284359E+00 -4.93499973E+00  9.26275954E-01
 -8.42088928E-01 -5.54121921E-01  1.50898866E+00 -5.65649348E+00  1.50898866E+00
 -5.54121921E-01 -8.42088928E-01  9.26275954E-01  4.69288003E+00 -4.93499973E+00
  4.69459293E+00 -4.93498151E+00  9.70501476E-01 -3.24848942E-01 -3.24848942E-01
  9.70501476E-01  1.15208670E+00  1.18608951E+00  1.18608951E+00  1.15208670E+00
  1.20130513E+00  1.20130513E+00 -3.67173878E+00  8.50380074E-01 -3.23044934E-01
  8.50380074E-01 -3.67173878E+00 -4.97268345E-01  7.43324062E-01  4.42847446E+00
 -4.95559093E+00 -5.66768197E+00  2.79256748E-01 -2.20562719E-01 -7.96041176E-01
 -1.02407504E+00 -5.30305375E-01  1.84440654E+00 -6.52762875E+00  1.84910789E+00
 -6.52748297E+00 -4.75602030E-01 -4.97268345E-01  1.20828427E+00  1.18663618E+00
  2.72773253E+00  8.57012991E-01  8.57012991E-01  6.05235472E-01  6.05235472E-01
  1.14190043E+00  1.18710996E+00  3.97934943E+00  3.97934943E+00  1.19230331E+00
  1.18663618E+00 -4.93498151E+00  4.69459293E+00  4.69288003E+00 -4.93499973E+00
  9.26275954E-01 -8.42088928E-01 -5.54121921E-01  1.50898866E+00 -5.65649348E+00
  1.50898866E+00 -5.54121921E-01 -8.42088928E-01  9.26275954E-01  4.69284359E+00
 -4.93499973E+00  4.69457470E+00 -4.93498151E+00  9.70501476E-01 -3.24848942E-01
 -3.24848942E-01  9.70501476E-01  1.15208670E+00  1.18608951E+00  1.18608951E+00
  1.15208670E+00  1.20130513E+00  1.20130513E+00 -3.67343346E+00  8.04970103E-01
 -6.81295352E-01 -5.34970283E-01  1.49617839E+00 -5.65738637E+00  1.49617839E+00
 -5.34970283E-01 -6.81295352E-01  8.04970103E-01 -3.67343346E+00 -6.81295352E-01
 -5.34970283E-01 -5.34970283E-01 -6.81295352E-01  1.17316990E+00  1.18689129E+00
  1.18689129E+00  1.17316990E+00  1.17316990E+00  1.18689129E+00  1.18689129E+00
  1.17316990E+00 -4.93498151E+00  4.69457470E+00  4.69284359E+00 -4.93499973E+00
  9.26275954E-01 -8.42088928E-01 -5.54121921E-01  1.50898866E+00 -5.65649348E+00
  1.50898866E+00 -5.54121921E-01 -8.42088928E-01  9.26275954E-01  4.69284359E+00
 -4.93499973E+00  4.69457470E+00 -4.93498151E+00  9.70501476E-01 -3.24848942E-01
 -3.24848942E-01  9.70501476E-01  1.15208670E+00  1.18608951E+00  1.18608951E+00
  1.15208670E+00  1.20130513E+00  1.20130513E+00 -3.67343346E+00  8.04970103E-01
 -6.81295352E-01 -5.34970283E-01  1.49617839E+00 -5.65738637E+00  1.49617839E+00
 -5.34970283E-01 -6.81295352E-01  8.04970103E-01 -3.67343346E+00 -6.81295352E-01
 -5.34970283E-01 -5.34970283E-01 -6.81295352E-01  1.17316990E+00  1.18689129E+00
  1.18689129E+00  1.17316990E+00  1.17316990E+00  1.18689129E+00  1.18689129E+00
  1.17316990E+00 -4.93498151E+00  4.69457470E+00  4.69284359E+00 -4.93499973E+00
  9.26275954E-01 -8.42088928E-01 -5.54121921E-01  1.50898866E+00 -5.65649348E+00
  1.50898866E+00 -5.54121921E-01 -8.42088928E-01  9.26275954E-01  4.69284359E+00
 -4.93499973E+00  4.69457470E+00 -4.93498151E+00  9.70501476E-01 -3.24848942E-01
 -3.24848942E-01  9.70501476E-01  1.15208670E+00  1.18608951E+00  1.18608951E+00
  1.15208670E+00  1.20130513E+00  1.20130513E+00 -3.67343346E+00  8.04970103E-01
 -6.81295352E-01 -5.34970283E-01  1.49617839E+00 -5.65738637E+00  1.49617839E+00
 -5.34970283E-01 -6.81295352E-01  8.04970103E-01 -3.67343346E+00 -6.81295352E-01
 -5.34970283E-01 -5.34970283E-01 -6.81295352E-01  1.17316990E+00  1.18689129E+00
  1.18689129E+00  1.17316990E+00  1.17316990E+00  1.18689129E+00  1.18689129E+00
  1.17316990E+00 -4.93498151E+00  4.69457470E+00  4.69284359E+00 -4.93499973E+00
  9.26275954E-01 -8.42088928E-01 -5.54121921E-01  1.50898866E+00 -5.65649348E+00
  1.50898866E+00 -5.54121921E-01 -8.42088928E-01  9.26275954E-01  4.69284359E+00
 -4.93499973E+00  4.69457470E+00 -4.93498151E+00  9.70501476E-01 -3.24848942E-01
 -3.24848942E-01  9.70501476E-01  1.15208670E+00  1.18608951E+00  1.18608951E+00
  1.15208670E+00  1.20130513E+00  1.20130513E+00 -3.67343346E+00  8.04970103E-01
 -6.81295352E-01 -5.34970283E-01  1.49617839E+00 -5.65738637E+00  1.49617839E+00
 -5.34970283E-01 -6.81295352E-01  8.04970103E-01 -3.67343346E+00 -6.81295352E-01
 -5.34970283E-01 -5.34970283E-01 -6.81295352E-01  1.17316990E+00  1.18689129E+00
  1.18689129E+00  1.17316990E+00  1.17316990E+00  1.18689129E+00  1.18689129E+00
  1.17316990E+00 -4.93498151E+00  4.69457470E+00  4.69284359E+00 -4.93499973E+00
  9.26275954E-01 -8.42088928E-01 -5.54121921E-01  1.50898866E+00 -5.65649348E+00
  1.50898866E+00 -5.54121921E-01 -8.42088928E-01  9.26275954E-01  4.69284359E+00
 -4.93499973E+00  4.69457470E+00 -4.93498151E+00  9.70501476E-01 -3.24848942E-01
 -3.24848942E-01  9.70501476E-01  1.15208670E+00  1.18608951E+00  1.18608951E+00
  1.15208670E+00  1.20130513E+00  1.20130513E+00 -3.67343346E+00  8.04970103E-01
 -6.81295352E-01 -5.34970283E-01  1.49617839E+00 -5.65738637E+00  1.49617839E+00
 -5.34970283E-01 -6.81295352E-01  8.04970103E-01 -3.67343346E+00 -6.81295352E-01
 -5.34970283E-01 -5.34970283E-01 -6.81295352E-01  1.17316990E+00  1.18689129E+00
  1.18689129E+00  1.17316990E+00  1.17316990E+00  1.18689129E+00  1.18689129E+00
  1.17316990E+00 -4.93498151E+00  4.69457470E+00  4.69284359E+00 -4.93499973E+00
  9.26275954E-01 -8.42088928E-01 -5.54121921E-01  1.50898866E+00 -5.65649348E+00
  1.50898866E+00 -5.54121921E-01 -8.42088928E-01  9.26275954E-01  4.69288003E+00
 -4.93499973E+00  4.69459293E+00 -4.93498151E+00  9.70501476E-01 -3.24848942E-01
 -3.24848942E-01  9.70501476E-01  1.15208670E+00  1.18608951E+00  1.18608951E+00
  1.15208670E+00  1.20130513E+00  1.20130513E+00 -3.67173878E+00  8.50380074E-01
 -3.23044934E-01  8.50380074E-01 -3.67173878E+00 -4.97268345E-01  7.43324062E-01
  4.42847446E+00 -4.95559093E+00 -5.66768197E+00  2.79256748E-01 -2.20562719E-01
 -7.96041176E-01 -1.02407504E+00 -5.30305375E-01  1.84440654E+00 -6.52762875E+00
  1.84910789E+00 -6.52748297E+00 -4.75602030E-01 -4.97268345E-01  1.20828427E+00
  1.18663618E+00  2.72773253E+00  8.57012991E-01  8.57012991E-01  6.05235472E-01
  6.05235472E-01  1.14190043E+00  1.18710996E+00  3.97934943E+00  3.97934943E+00
  1.19230331E+00  1.18663618E+00 -4.93498151E+00  4.69459293E+00  4.69288003E+00
 -4.93499973E+00  9.26275954E-01 -8.42088928E-01 -5.54121921E-01  1.50898866E+00
 -5.65649348E+00  1.50898866E+00 -5.54121921E-01 -8.42088928E-01  9.26275954E-01
  4.69284359E+00 -4.93499973E+00  4.69457470E+00 -4.93498151E+00  9.70501476E-01
 -3.24848942E-01 -3.24848942E-01  9.70501476E-01  1.15208670E+00  1.18608951E+00
  1.18608951E+00  1.15208670E+00  1.20130513E+00  1.20130513E+00 -3.67343346E+00
  8.04970103E-01 -6.81295352E-01 -5.34970283E-01  1.49617839E+00 -5.65738637E+00
  1.49616016E+00 -5.35753842E-01 -7.05895457E-01  4.27076045E-01 -6.52895898E+00
 -7.05895457E-01 -5.35753842E-01 -5.34970283E-01 -6.81295352E-01  1.17316990E+00
  1.18689129E+00  1.18689129E+00  1.17238634E+00  2.59957510E+00  2.59957510E+00
  1.17238634E+00  1.18689129E+00  1.18689129E+00  1.17316990E+00
%FLAG ATOMIC_NUMBER                                                             
%FORMAT(10I8)                                                                   
       7       6       6       6       6       8       6       6       6       6
       7       6       6       6       6       1       1       1       1       1
       1       1       1       1       1       8       6       6       8       6
       6       6       6       8       6       6       6       6       6       8
       6       8       6       6       6       6       1       1       1       1
       1       1       7       6       6       6       7       6       6       6
       8       7       6       6       6       6       6       6       8       6
       8       6       6       1       1       1       1       1       1       1
       1       1       1       1       1       1       8       6       6       8
       6       6       6       6       8       6       6       6       6       6
       8       6       8       6       6       6       6       1       1       1
       1       1       1       7       6       6       6       6       8       6
       6       6       6       7       6       6       6       6       1       1
       1       1       1       1       1       1       8       6       6       8
       6       6       6       6       8       6       6       6       6       6
       8       6       8       6       6       6       6       1       1       1
       1       1       1       7       6       6       6       6       8       6
       6       6       6       7       6       6       6       6       1       1
       1       1       1       1       1       1       8       6       6       8
       6       6       6       6       8       6       6       6       6       6
       8       6       8       6       6       6       6       1       1       1
       1       1       1       7       6       6       6       6       8       6
       6       6       6       7       6       6       6       6       1       1
       1       1       1       1       1       1       8       6       6       8
       6       6       6       6       8       6       6       6       6       6
       8       6       8       6       6       6       6       1       1       1
       1       1       1       7       6       6       6       6       8       6
       6       6       6       7       6       6       6       6       1       1
       1       1       1       1       1       1       8       6       6       8
       6       6       6       6       8       6       6       6       6       6
       8       6       8       6       6       6       6       1       1       1
       1       1       1       7       6       6       6       6       8       6
       6       6       6       7       6       6       6       6       1       1
       1       1       1       1       1       1       8       6       6       8
       6       6       6       6       8       6       6       6       6       6
       8       6       8       6       6       6       6       1       1       1
       1       1       1       7       6       6       6       7       6       6
       6       8       7       6       6       6       6       6       6       8
       6       8       6       6       1       1       1       1       1       1
       1       1       1       1       1       1       1       8       6       6
       8       6       6       6       6       8       6       6       6       6
       6       8       6       8       6       6       6       6       1       1
       1       1       1       1       7       6       6       6       6       8
       6       6       6       6       7       6       6       6       6       1
       1       1       1       1       1       1       1       1       1       7
       6       6       6       6       8       6       6       6       6       7
       6       6       6       6       1       1       1       1       1       1
       1       1       1       1       8       6       6       8       6       6
       6       6       8       6       6       6       6       6       8       6
       8       6       6       6       6       1       1       1       1       1
       1       7       6       6       6       7       6       6       6       8
       7       6       6       6       6       6       6       8       6       8
       6       6       1       1       1       1       1       1       1       1
       1       1       1       1       1       8       6       6       8       6
       6       6       6       8       6       6       6       6       6       8
       6       8       6       6       6       6       1       1       1       1
       1       1       7       6       6       6       6       8       6       6
       6       6       7       6       6       6       6       1       1       1
       1       1       1       1       1       8       6       6       8       6
       6       6       6       8       6       6       6       6       6       8
       6       8       6       6       6       6       1       1       1       1
       1       1       7       6       6       6       6       8       6       6
       6       6       7       6       6       6       6       1       1       1
       1       1       1       1       1       8       6       6       8       6
       6       6       6       8       6       6       6       6       6       8
       6       8       6       6       6       6       1       1       1       1
       1       1       7       6       6       6       6       8       6       6
       6       6       7       6       6       6       6       1       1       1
       1       1       1       1       1       8       6       6       8       6
       6       6       6       8       6       6       6       6       6       8
       6       8       6       6       6       6       1       1       1       1
       1       1       7       6       6       6       6       8       6       6
       6       6       7       6       6       6       6       1       1       1
       1       1       1       1       1       8       6       6       8       6
       6       6       6       8       6       6       6       6       6       8
       6       8       6       6       6       6       1       1       1       1
       1       1       7       6       6       6       6       8       6       6
       6       6       7       6       6       6       6       1       1       1
       1       1       1       1       1       8       6       6       8       6
       6       6       6       8       6       6       6       6       6       8
       6       8       6       6       6       6       1       1       1       1
       1       1       7       6       6       6       7       6       6       6
       8       7       6       6       6       6       6       6       8       6
       8       6       6       1       1       1       1       1       1       1
       1       1       1       1       1       1       8       6       6       8
       6       6       6       6       8       6       6       6       6       6
       8       6       8       6       6       6       6       1       1       1
       1       1       1       7       6       6       6       6       8       6
       6       6       6       7       6       6       6       6       1       1
       1       1       1       1       1       1       1       1       7       6
       6       6       6       8       6       6       6       6       7       6
       6       6       6       1       1       1       1       1       1       1
       1       1       1       8       6       6       8       6       6       6
       6       8       6       6       6       6       6       8       6       8
       6       6       6       6       1       1       1       1       1       1
       7       6       6       6       7       6       6       6       8       7
       6       6       6       6       6       6       8       6       8       6
       6       1       1       1       1       1       1       1       1       1
       1       1       1       1       8       6       6       8       6       6
       6       6       8       6       6       6       6       6       8       6
       8       6       6       6       6       1       1       1       1       1
       1       7       6       6       6       6       8       6       6       6
       6       7       6       6       6       6       1       1       1       1
       1       1       1       1       8       6       6       8       6       6
       6       6       8       6       6       6       6       6       8       6
       8       6       6       6       6       1       1       1       1       1
       1       7       6       6       6       6       8       6       6       6
       6       7       6       6       6       6       1       1       1       1
       1       1       1       1       8       6       6       8       6       6
       6       6       8       6       6       6       6       6       8       6
       8       6       6       6       6       1       1       1       1       1
       1       7       6       6       6       6       8       6       6       6
       6       7       6       6       6       6       1       1       1       1
       1       1       1       1       8       6       6       8       6       6
       6       6       8       6       6       6       6       6       8       6
       8       6       6       6       6       1       1       1       1       1
       1       7       6       6       6       6       8       6       6       6
       6       7       6       6       6       6       1       1       1       1
       1       1       1       1       8       6       6       8       6       6
       6       6       8       6       6       6       6       6       8       6
       8       6       6       6       6       1       1       1       1       1
       1       7       6       6       6       6       8       6       6       6
       6       7       6       6       6       6       1       1       1       1
       1       1       1       1       8       6       6       8       6       6
       6       6       8       6       6       6       6       6       8       6
       8       6       6       6       6       1       1       1       1       1
       1       7       6       6       6       7       6       6       6       8
       7       6       6       6       6       6       6       8       6       8
       6       6       1       1       1       1       1       1       1       1
       1       1       1       1       1       8       6       6       8       6
       6       6       6       8       6       6       6       6       6       8
       6       8       6       6       6       6       1       1       1       1
       1       1       7       6       6       6       6       8       6       6
       6       6       7       6       6       6       6       1       1       1
       1       1       1       1       1       1       1       7       6       6
       6       6       8       6       6       6       6       7       6       6
       6       6       1       1       1       1       1       1       1       1
       1       1       8       6       6       8       6       6       6       6
       8       6       6       6       6       6       8       6       8       6
       6       6       6       1       1       1       1       1       1       7
       6       6       6       7       6       6       6       8       7       6
       6       6       6       6       6       8       6       8       6       6
       1       1       1       1       1       1       1       1       1       1
       1       1       1       8       6       6       8       6       6       6
       6       8       6       6       6       6       6       8       6       8
       6       6       6       6       1       1       1       1       1       1
       7       6       6       6       6       8       6       6       6       6
       7       6       6       6       6       1       1       1       1       1
       1       1       1       8       6       6       8       6       6       6
       6       8       6       6       6       6       6       8       6       8
       6       6       6       6       1       1       1       1       1       1
       7       6       6       6       6       8       6       6       6       6
       7       6       6       6       6       1       1       1       1       1
       1       1       1       8       6       6       8       6       6       6
       6       8       6       6       6       6       6       8       6       8
       6       6       6       6       1       1       1       1       1       1
       7       6       6       6       6       8       6       6       6       6
       7       6       6       6       6       1       1       1       1       1
       1       1       1       8       6       6       8       6       6       6
       6       8       6       6       6       6       6       8       6       8
       6       6       6       6       1       1       1       1       1       1
       7       6       6       6       6       8       6       6       6       6
       7       6       6       6       6       1       1       1       1       1
       1       1       1       8       6       6       8       6       6       6
       6       8       6       6       6       6       6       8       6       8
       6       6       6       6       1       1       1       1       1       1
       7       6       6       6       6       8       6       6       6       6
       7       6       6       6       6       1       1       1       1       1
       1       1       1       8       6       6       8       6       6       6
       6       8       6       6       6       6       6       8       6       8
       6       6       6       6       1       1       1       1       1       1
       7       6       6       6       7       6       6       6       8       7
       6       6       6       6       6       6       8       6       8       6
       6       1       1       1       1       1       1       1       1       1
       1       1       1       1       8       6       6       8       6       6
       6       6       8       6       6       6       6       6       8       6
       8       6       6       6       6       1       1       1       1       1
       1       7       6       6       6       6       8       6       6       6
       6       7       6       6       6       6       1       1       1       1
       1       1       1       1       1       1       7       6       6       6
       6       8       6       6       6       6       7       6       6       6
       6       1       1       1       1       1       1       1       1       1
       1       8       6       6       8       6       6       6       6       8
       6       6       6       6       6       8       6       8       6       6
       6       6       1       1       1       1       1       1       7       6
       6       6       7       6       6       6       8       7       6       6
       6       6       6       6       8       6       8       6       6       1
       1       1       1       1       1       1       1       1       1       1
       1       1       8       6       6       8       6       6       6       6
       8       6       6       6       6       6       8       6       8       6
       6       6       6       1       1       1       1       1       1       7
       6       6       6       6       8       6       6       6       6       7
       6       6       6       6       1       1       1       1       1       1
       1       1       8       6       6       8       6       6       6       6
       8       6       6       6       6       6       8       6       8       6
       6       6       6       1       1       1       1       1       1       7
       6       6       6       6       8       6       6       6       6       7
       6       6       6       6       1       1       1       1       1       1
       1       1       8       6       6       8       6       6       6       6
       8       6       6       6       6       6       8       6       8       6
       6       6       6       1       1       1       1       1       1       7
       6       6       6       6       8       6       6       6       6       7
       6       6       6       6       1       1       1       1       1       1
       1       1       8       6       6       8       6       6       6       6
       8       6       6       6       6       6       8       6       8       6
       6       6       6       1       1       1       1       1       1       7
       6       6       6       6       8       6       6       6       6       7
       6       6       6       6       1       1       1       1       1       1
       1       1       8       6       6       8       6       6       6       6
       8       6       6       6       6       6       8       6       8       6
       6       6       6       1       1       1       1       1       1       7
       6       6       6       6       8       6       6       6       6       7
       6       6       6       6       1       1       1       1       1       1
       1       1       8       6       6       8       6       6       6       6
       8       6       6       6       6       6       8       6       8       6
       6       6       6       1       1       1       1       1       1       7
       6       6       6       7       6       6       6       8       7       6
       6       6       6       6       6       8       6       8       6       6
       1       1       1       1       1       1       1       1       1       1
       1       1       1       8       6       6       8       6       6       6
       6       8       6       6       6       6       6       8       6       8
       6       6       6       6       1       1       1       1       1       1
       7       6       6       6       6       8       6       6       6       6
       7       6       6       6       6       1       1       1       1       1
       1       1       1       1       1       7       6       6       6       6
       8       6       6       6       6       7       6       6       6       6
       1       1       1       1       1       1       1       1       1       1
       8       6       6       8       6       6       6       6       8       6
       6       6       6       6       8       6       8       6       6       6
       6       1       1       1       1       1       1       7       6       6
       6       7       6       6       6       8       7       6       6       6
       6       6       6       8       6       8       6       6       1       1
       1       1       1       1       1       1       1       1       1       1
       1       8       6       6       8       6       6       6       6       8
       6       6       6       6       6       8       6       8       6       6
       6       6       1       1       1       1       1       1       7       6
       6       6       6       8       6       6       6       6       7       6
       6       6       6       1       1       1       1       1       1       1
       1       8       6       6       8       6       6       6       6       8
       6       6       6       6       6       8       6       8       6       6
       6       6       1       1       1       1       1       1       7       6
       6       6       6       8       6       6       6       6       7       6
       6       6       6       1       1       1       1       1       1       1
       1       8       6       6       8       6       6       6       6       8
       6       6       6       6       6       8       6       8       6       6
       6       6       1       1       1       1       1       1       7       6
       6       6       6       8       6       6       6       6       7       6
       6       6       6       1       1       1       1       1       1       1
       1       8       6       6       8       6       6       6       6       8
       6       6       6       6       6       8       6       8       6       6
       6       6       1       1       1       1       1       1       7       6
       6       6       6       8       6       6       6       6       7       6
       6       6       6       1       1       1       1       1       1       1
       1       8       6       6       8       6       6       6       6       8
       6       6       6       6       6       8       6       8       6       6
       6       6       1       1       1       1       1       1       7       6
       6       6       6       8       6       6       6       6       7       6
       6       6       6       1       1       1       1       1       1       1
       1       8       6       6       8       6       6       6       6       8
       6       6       6       6       6       8       6       8       6       6
       6       6       1       1       1       1       1       1       7       6
       6       6       7       6       6       6       8       7       6       6
       6       6       6       6       8       6       8       6       6       1
       1       1       1       1       1       1       1       1       1       1
       1       1       8       6       6       8       6       6       6       6
       8       6       6       6       6       6       8       6       8       6
       6       6       6       1       1       1       1       1       1       7
       6       6       6       6       8       6       6       6       6       7
       6       6       6       6       1       1       1       1       1       1
       1       1       1       1
%FLAG MASS                                                                      
%FORMAT(5E16.8)                                                                 
  1.40100000E+01  1.20100000E+01  1.20100000E+01  1.20100000E+01  1.20100000E+01
  1.60000000E+01  1.20100000E+01  1.20100000E+01  1.20100000E+01  1.20100000E+01
  1.40100000E+01  1.20100000E+01  1.20100000E+01  1.20100000E+01  1.20100000E+01
  1.00800000E+00  1.00800000E+00  1.00800000E+00  1.00800000E+00  1.00800000E+00
  1.00800000E+00  1.00800000E+00  1.00800000E+00  1.00800000E+00  1.00800000E+00
  1.60000000E+01  1.20100000E+01  1.20100000E+01  1.60000000E+01  1.20100000E+01
  1.20100000E+01  1.20100000E+01  1.20100000E+01  1.60000000E+01  1.20100000E+01
  1.20100000E+01  1.20100000E+01  1.20100000E+01  1.20100000E+01  1.60000000E+01
  1.20100000E+01  1.60000000E+01  1.20100000E+01  1.20100000E+01  1.20100000E+01
  1.20100000E+01  1.00800000E+00  1.00800000E+00  1.00800000E+00  1.00800000E+00
  1.00800000E+00  1.00800000E+00  1.40100000E+01  1.20100000E+01  1.20100000E+01
  1.20100000E+01  1.40100000E+01  1.20100000E+01  1.20100000E+01  1.20100000E+01
  1.60000000E+01  1.40100000E+01  1.20100000E+01  1.20100000E+01  1.20100000E+01
  1.20100000E+01  1.20100000E+01  1.20100000E+01  1.60000000E+01  1.20100000E+01
  1.60000000E+01  1.20100000E+01  1.20100000E+01  1.00800000E+00  1.00800000E+00
  1.00800000E+00  1.00800000E+00  1.00800000E+00  1.00800000E+00  1.00800000E+00
  1.00800000E+00  1.00800000E+00  1.00800000E+00  1.00800000E+00  1.00800000E+00
  1.00800000E+00  1.60000000E+01  1.20100000E+01  1.20100000E+01  1.60000000E+01
  1.20100000E+01  1.20100000E+01  1.20100000E+01  1.20100000E+01  1.60000000E+01
  1.20100000E+01  1.20100000E+01  1.20100000E+01  1.20100000E+01  1.20100000E+01
  1.60000000E+01  1.20100000E+01  1.60000000E+01  1.20100000E+01  1.20100000E+01
  1.20100000E+01  1.20100000E+01  1.00800000E+00  1.00800000E+00  1.00800000E+00
  1.00800000E+00  1.00800000E+00  1.00800000E+00  1.40100000E+01  1.20100000E+01
  1.20100000E+01  1.20100000E+01  1.20100000E+01  1.60000000E+01  1.20100000E+01
  1.20100000E+01  1.20100000E+01  1.20100000E+01  1.40100000E+01  1.20100000E+01
  1.20100000E+01  1.20100000E+01  1.20100000E+01  1.00800000E+00  1.00800000E+00
  1.00800000E+00  1.00800000E+00  1.00800000E+00  1.00800000E+00  1.00800000E+00
  1.00800000E+00  1.60000000E+01  1.20100000E+01  1.20100000E+01  1.60000000E+01
  1.20100000E+01  1.20100000E+01  1.20100000E+01  1.20100000E+01  1.60000000E+01
  1.20100000E+01  1.20100000E+01  1.20100000E+01  1.20100000E+01  1.20100000E+01
  1.60000000E+01  1.20100000E+01  1.60000000E+01  1.20100000E+01  1.20100000E+01
  1.20100000E+01  1.20100000E+01  1.00800000E+00  1.00800000E+00  1.00800000E+00
  1.00800000E+00  1.00800000E+00  1.00800000E+00  1.40100000E+01  1.20100000E+01
  1.20100000E+01  1.20100000E+01  1.20100000E+01  1.60000000E+01  1.20100000E+01
  1.20100000E+01  1.20100000E+01  1.20100000E+01  1.40100000E+01  1.20100000E+01
  1.20100000E+01  1.20100000E+01  1.20100000E+01  1.00800000E+00  1.00800000E+00
  1.00800000E+00  1.00800000E+00  1.00800000E+00  1.00800000E+00  1.00800000E+00
  1.00800000E+00  1.60000000E+01  1.20100000E+01  1.20100000E+01  1.60000000E+01
  1.20100000E+01  1.20100000E+01  1.20100000E+01  1.20100000E+01  1.60000000E+01
  1.20100000E+01  1.20100000E+01  1.20100000E+01  1.20100000E+01  1.20100000E+01
  1.60000000E+01  1.20100000E+01  1.60000000E+01  1.20100000E+01  1.20100000E+01
  1.20100000E+01  1.20100000E+01  1.00800000E+00  1.00800000E+00  1.00800000E+00
  1.00800000E+00  1.00800000E+00  1.00800000E+00  1.40100000E+01  1.20100000E+01
  1.20100000E+01  1.20100000E+01  1.20100000E+01  1.60000000E+01  1.20100000E+01
  1.20100000E+01  1.20100000E+01  1.20100000E+01  1.40100000E+01  1.20100000E+01
  1.20100000E+01  1.20100000E+01  1.20100000E+01  1.00800000E+00  1.00800000E+00
  1.00800000E+00  1.00800000E+00  1.00800000E+00  1.00800000E+00  1.00800000E+00
  1.00800000E+00  1.60000000E+01  1.20100000E+01  1.20100000E+01  1.60000000E+01
  1.20100000E+01  1.20100000E+01  1.20100000E+01  1.20100000E+01  1.60000000E+01
  1.20100000E+01  1.20100000E+01  1.20100000E+01  1.20100000E+01  1.20100000E+01
  1.60000000E+01  1.20100000E+01  1.60000000E+01  1.20100000E+01  1.20100000E+01
  1.20100000E+01  1.20100000E+01  1.00800000E+00  1.00800000E+00  1.00800000E+00
  1.00800000E+00  1.00800000E+00  1.00800000E+00  1.40100000E+01  1.20100000E+01
  1.20100000E+01  1.20100000E+01  1.20100000E+01  1.60000000E+01  1.20100000E+01
  1.20100000E+01  1.20100000E+01  1.20100000E+01  1.40100000E+01  1.20100000E+01
  1.20100000E+01  1.20100000E+01  1.20100000E+01  1.00800000E+00  1.00800000E+00
  1.00800000E+00  1.00800000E+00  1.00800000E+00  1.00800000E+00  1.00800000E+00
  1.00800000E+00  1.60000000E+01  1.20100000E+01  1.20100000E+01  1.60000000E+01
  1.20100000E+01  1.20100000E+01  1.20100000E+01  1.20100000E+01  1.60000000E+01
  1.20100000E+01  1.20100000E+01  1.20100000E+01  1.20100000E+01  1.20100000E+01
  1.60000000E+01  1.20100000E+01  1.60000000E+01  1.20100000E+01  1.20100000E+01
  1.20100000E+01  1.20100000E+01  1.00800000E+00  1.00800000E+00  1.00800000E+00
  1.00800000E+00  1.00800000E+00  1.00800000E+00  1.40100000E+01  1.20100000E+01
  1.20100000E+01  1.20100000E+01  1.20100000E+01  1.60000000E+01  1.20100000E+01
  1.20100000E+01  1.20100000E+01  1.20100000E+01  1.40100000E+01  1.20100000E+01
  1.20100000E+01  1.20100000E+01  1.20100000E+01  1.00800000E+00  1.00800000E+00
  1.00800000E+00  1.00800000E+00  1.00800000E+00  1.00800000E+00  1.00800000E+00
  1.00800000E+00  1.60000000E+01  1.20100000E+01  1.20100000E+01  1.60000000E+01
  1.20100000E+01  1.20100000E+01  1.20100000E+01  1.20100000E+01  1.60000000E+01
  1.20100000E+01  1.20100000E+01  1.20100000E+01  1.20100000E+01  1.20100000E+01
  1.60000000E+01  1.20100000E+01  1.60000000E+01  1.20100000E+01  1.20100000E+01
  1.20100000E+01  1.20100000E+01  1.00800000E+00  1.00800000E+00  1.00800000E+00
  1.00800000E+00  1.00800000E+00  1.00800000E+00  1.40100000E+01  1.20100000E+01
  1.20100000E+01  1.20100000E+01  1.40100000E+01  1.20100000E+01  1.20100000E+01
  1.20100000E+01  1.60000000E+01  1.40100000E+01  1.20100000E+01  1.20100000E+01
  1.20100000E+01  1.20100000E+01  1.20100000E+01  1.20100000E+01  1.60000000E+01
  1.20100000E+01  1.60000000E+01  1.20100000E+01  1.20100000E+01  1.00800000E+00
  1.00800000E+00  1.00800000E+00  1.00800000E+00  1.00800000E+00  1.00800000E+00
  1.00800000E+00  1.00800000E+00  1.00800000E+00  1.00800000E+00  1.00800000E+00
  1.00800000E+00  1.00800000E+00  1.60000000E+01  1.20100000E+01  1.20100000E+01
  1.60000000E+01  1.20100000E+01  1.20100000E+01  1.20100000E+01  1.20100000E+01
  1.60000000E+01  1.20100000E+01  1.20100000E+01  1.20100000E+01  1.20100000E+01
  1.20100000E+01  1.60000000E+01  1.20100000E+01  1.60000000E+01  1.20100000E+01
  1.20100000E+01  1.20100000E+01  1.20100000E+01  1.00800000E+00  1.00800000E+00
  1.00800000E+00  1.00800000E+00  1.00800000E+00  1.00800000E+00  1.40100000E+01
  1.20100000E+01  1.20100000E+01  1.20100000E+01  1.20100000E+01  1.60000000E+01
  1.20100000E+01  1.20100000E+01  1.20100000E+01  1.20100000E+01  1.40100000E+01
  1.20100000E+01  1.20100000E+01  1.20100000E+01  1.20100000E+01  1.00800000E+00
  1.00800000E+00  1.00800000E+00  1.00800000E+00  1.00800000E+00  1.00800000E+00
  1.00800000E+00  1.00800000E+00  1.00800000E+00  1.00800000E+00  1.40100000E+01
  1.20100000E+01  1.20100000E+01  1.20100000E+01  1.20100000E+01  1.60000000E+01
  1.20100000E+01  1.20100000E+01  1.20100000E+01  1.20100000E+01  1.40100000E+01
  1.20100000E+01  1.20100000E+01  1.20100000E+01  1.20100000E+01  1.00800000E+00
  1.00800000E+00  1.00800000E+00  1.00800000E+00  1.00800000E+00  1.00800000E+00
  1.00800000E+00  1.00800000E+00  1.00800000E+00  1.00800000E+00  1.60000000E+01
  1.20100000E+01  1.20100000E+01  1.60000000E+01  1.20100000E+01  1.20100000E+01
  1.20100000E+01  1.20100000E+01  1.60000000E+01  1.20100000E+01  1.20100000E+01
  1.20100000E+01  1.20100000E+01  1.20100000E+01  1.60000000E+01  1.20100000E+01
  1.60000000E+01  1.20100000E+01  1.20100000E+01  1.20100000E+01  1.20100000E+01
  1.00800000E+00  1.00800000E+00  1.00800000E+00  1.00800000E+00  1.00800000E+00
  1.00800000E+00  1.40100000E+01  1.20100000E+01  1.20100000E+01  1.20100000E+01
  1.40100000E+01  1.20100000E+01  1.20100000E+01  1.20100000E+01  1.60000000E+01
  1.40100000E+01  1.20100000E+01  1.20100000E+01  1.20100000E+01  1.20100000E+01
  1.20100000E+01  1.20100000E+01  1.60000000E+01  1.20100000E+01  1.60000000E+01
  1.20100000E+01  1.20100000E+01  1.00800000E+00  1.00800000E+00  1.00800000E+00
  1.00800000E+00  1.00800000E+00  1.00800000E+00  1.00800000E+00  1.00800000E+00
  1.00800000E+00  1.00800000E+00  1.00800000E+00  1.00800000E+00  1.00800000E+00
  1.60000000E+01  1.20100000E+01  1.20100000E+01  1.60000000E+01  1.20100000E+01
  1.20100000E+01  1.20100000E+01  1.20100000E+01  1.60000000E+01  1.20100000E+01
  1.20100000E+01  1.20100000E+01  1.20100000E+01  1.20100000E+01  1.60000000E+01
  1.20100000E+01  1.60000000E+01  1.20100000E+01  1.20100000E+01  1.20100000E+01
  1.20100000E+01  1.00800000E+00  1.00800000E+00  1.00800000E+00  1.00800000E+00
  1.00800000E+00  1.00800000E+00  1.40100000E+01  1.20100000E+01  1.20100000E+01
  1.20100000E+01  1.20100000E+01  1.60000000E+01  1.20100000E+01  1.20100000E+01
  1.20100000E+01  1.20100000E+01  1.40100000E+01  1.20100000E+01  1.20100000E+01
  1.20100000E+01  1.20100000E+01  1.00800000E+00  1.00800000E+00  1.00800000E+00
  1.00800000E+00  1.00800000E+00  1.00800000E+00  1.00800000E+00  1.00800000E+00
  1.60000000E+01  1.20100000E+01  1.20100000E+01  1.60000000E+01  1.20100000E+01
  1.20100000E+01  1.20100000E+01  1.20100000E+01  1.60000000E+01  1.20100000E+01
  1.20100000E+01  1.20100000E+01  1.20100000E+01  1.20100000E+01  1.60000000E+01
  1.20100000E+01  1.60000000E+01  1.20100000E+01  1.20100000E+01  1.20100000E+01
  1.20100000E+01  1.00800000E+00  1.00800000E+00  1.00800000E+00  1.00800000E+00
  1.00800000E+00  1.00800000E+00  1.40100000E+01  1.20100000E+01  1.20100000E+01
  1.20100000E+01  1.20100000E+01  1.60000000E+01  1.20100000E+01  1.20100000E+01
  1.20100000E+01  1.20100000E+01  1.40100000E+01  1.20100000E+01  1.20100000E+01
  1.20100000E+01  1.20100000E+01  1.00800000E+00  1.00800000E+00  1.00800000E+00
  1.00800000E+00  1.00800000E+00  1.00800000E+00  1.00800000E+00  1.00800000E+00
  1.60000000E+01  1.20100000E+01  1.20100000E+01  1.60000000E+01  1.20100000E+01
  1.20100000E+01  1.20100000E+01  1.20100000E+01  1.60000000E+01  1.20100000E+01
  1.20100000E+01  1.20100000E+01  1.20100000E+01  1.20100000E+01  1.60000000E+01
  1.20100000E+01  1.60000000E+01  1.20100000E+01  1.20100000E+01  1.20100000E+01
  1.20100000E+01  1.00800000E+00  1.00800000E+00  1.00800000E+00  1.00800000E+00
  1.00800000E+00  1.00800000E+00  1.40100000E+01  1.20100000E+01  1.20100000E+01
  1.20100000E+01  1.20100000E+01  1.60000000E+01  1.20100000E+01  1.20100000E+01
  1.20100000E+01  1.20100000E+01  1.40100000E+01  1.20100000E+01  1.20100000E+01
  1.20100000E+01  1.20100000E+01  1.00800000E+00  1.00800000E+00  1.00800000E+00
  1.00800000E+00  1.00800000E+00  1.00800000E+00  1.00800000E+00  1.00800000E+00
  1.60000000E+01  1.20100000E+01  1.20100000E+01  1.60000000E+01  1.20100000E+01
  1.20100000E+01  1.20100000E+01  1.20100000E+01  1.60000000E+01  1.20100000E+01
  1.20100000E+01  1.20100000E+01  1.20100000E+01  1.20100000E+01  1.60000000E+01
  1.20100000E+01  1.60000000E+01  1.20100000E+01  1.20100000E+01  1.20100000E+01
  1.20100000E+01  1.00800000E+00  1.00800000E+00  1.00800000E+00  1.00800000E+00
  1.00800000E+00  1.00800000E+00  1.40100000E+01  1.20100000E+01  1.20100000E+01
  1.20100000E+01  1.20100000E+01  1.60000000E+01  1.20100000E+01  1.20100000E+01
  1.20100000E+01  1.20100000E+01  1.40100000E+01  1.20100000E+01  1.20100000E+01
  1.20100000E+01  1.20100000E+01  1.00800000E+00  1.00800000E+00  1.00800000E+00
  1.00800000E+00  1.00800000E+00  1.00800000E+00  1.00800000E+00  1.00800000E+00
  1.60000000E+01  1.20100000E+01  1.20100000E+01  1.60000000E+01  1.20100000E+01
  1.20100000E+01  1.20100000E+01  1.20100000E+01  1.60000000E+01  1.20100000E+01
  1.20100000E+01  1.20100000E+01  1.20100000E+01  1.20100000E+01  1.60000000E+01
  1.20100000E+01  1.60000000E+01  1.20100000E+01  1.20100000E+01  1.20100000E+01
  1.20100000E+01  1.00800000E+00  1.00800000E+00  1.00800000E+00  1.00800000E+00
  1.00800000E+00  1.00800000E+00  1.40100000E+01  1.20100000E+01  1.20100000E+01
  1.20100000E+01  1.20100000E+01  1.60000000E+01  1.20100000E+01  1.20100000E+01
  1.20100000E+01  1.20100000E+01  1.40100000E+01  1.20100000E+01  1.20100000E+01
  1.20100000E+01  1.20100000E+01  1.00800000E+00  1.00800000E+00  1.00800000E+00
  1.00800000E+00  1.00800000E+00  1.00800000E+00  1.00800000E+00  1.00800000E+00
  1.60000000E+01  1.20100000E+01  1.20100000E+01  1.60000000E+01  1.20100000E+01
  1.20100000E+01  1.20100000E+01  1.20100000E+01  1.60000000E+01  1.20100000E+01
  1.20100000E+01  1.20100000E+01  1.20100000E+01  1.20100000E+01  1.60000000E+01
  1.20100000E+01  1.60000000E+01  1.20100000E+01  1.20100000E+01  1.20100000E+01
  1.20100000E+01  1.00800000E+00  1.00800000E+00  1.00800000E+00  1.00800000E+00
  1.00800000E+00  1.00800000E+00  1.40100000E+01  1.20100000E+01  1.20100000E+01
  1.20100000E+01  1.40100000E+01  1.20100000E+01  1.20100000E+01  1.20100000E+01
  1.60000000E+01  1.40100000E+01  1.20100000E+01  1.20100000E+01  1.20100000E+01
  1.20100000E+01  1.20100000E+01  1.20100000E+01  1.60000000E+01  1.20100000E+01
  1.60000000E+01  1.20100000E+01  1.20100000E+01  1.00800000E+00  1.00800000E+00
  1.00800000E+00  1.00800000E+00  1.00800000E+00  1.00800000E+00  1.00800000E+00
  1.00800000E+00  1.00800000E+00  1.00800000E+00  1.00800000E+00  1.00800000E+00
  1.00800000E+00  1.60000000E+01  1.20100000E+01  1.20100000E+01  1.60000000E+01
  1.20100000E+01  1.20100000E+01  1.20100000E+01  1.20100000E+01  1.60000000E+01
  1.20100000E+01  1.20100000E+01  1.20100000E+01  1.20100000E+01  1.20100000E+01
  1.60000000E+01  1.20100000E+01  1.60000000E+01  1.20100000E+01  1.20100000E+01
  1.20100000E+01  1.20100000E+01  1.00800000E+00  1.00800000E+00  1.00800000E+00
  1.00800000E+00  1.00800000E+00  1.00800000E+00  1.40100000E+01  1.20100000E+01
  1.20100000E+01  1.20100000E+01  1.20100000E+01  1.60000000E+01  1.20100000E+01
  1.20100000E+01  1.20100000E+01  1.20100000E+01  1.40100000E+01  1.20100000E+01
  1.20100000E+01  1.20100000E+01  1.20100000E+01  1.00800000E+00  1.00800000E+00
  1.00800000E+00  1.00800000E+00  1.00800000E+00  1.00800000E+00  1.00800000E+00
  1.00800000E+00  1.00800000E+00  1.00800000E+00  1.40100000E+01  1.20100000E+01
  1.20100000E+01  1.20100000E+01  1.20100000E+01  1.60000000E+01  1.20100000E+01
  1.20100000E+01  1.20100000E+01  1.20100000E+01  1.40100000E+01  1.20100000E+01
  1.20100000E+01  1.20100000E+01  1.20100000E+01  1.00800000E+00  1.00800000E+00
  1.00800000E+00  1.00800000E+00  1.00800000E+00  1.00800000E+00  1.00800000E+00
  1.00800000E+00  1.00800000E+00  1.00800000E+00  1.60000000E+01  1.20100000E+01
  1.20100000E+01  1.60000000E+01  1.20100000E+01  1.20100000E+01  1.20100000E+01
  1.20100000E+01  1.60000000E+01  1.20100000E+01  1.20100000E+01  1.20100000E+01
  1.20100000E+01  1.20100000E+01  1.60000000E+01  1.20100000E+01  1.60000000E+01
  1.20100000E+01  1.20100000E+01  1.20100000E+01  1.20100000E+01  1.00800000E+00
  1.00800000E+00  1.00800000E+00  1.00800000E+00  1.00800000E+00  1.00800000E+00
  1.40100000E+01  1.20100000E+01  1.20100000E+01  1.20100000E+01  1.40100000E+01
  1.20100000E+01  1.20100000E+01  1.20100000E+01  1.60000000E+01  1.40100000E+01
  1.20100000E+01  1.20100000E+01  1.20100000E+01  1.20100000E+01  1.20100000E+01
  1.20100000E+01  1.60000000E+01  1.20100000E+01  1.60000000E+01  1.20100000E+01
  1.20100000E+01  1.00800000E+00  1.00800000E+00  1.00800000E+00  1.00800000E+00
  1.00800000E+00  1.00800000E+00  1.00800000E+00  1.00800000E+00  1.00800000E+00
  1.00800000E+00  1.00800000E+00  1.00800000E+00  1.00800000E+00  1.60000000E+01
  1.20100000E+01  1.20100000E+01  1.60000000E+01  1.20100000E+01  1.20100000E+01
  1.20100000E+01  1.20100000E+01  1.60000000E+01  1.20100000E+01  1.20100000E+01
  1.20100000E+01  1.20100000E+01  1.20100000E+01  1.60000000E+01  1.20100000E+01
  1.60000000E+01  1.20100000E+01  1.20100000E+01  1.20100000E+01  1.20100000E+01
  1.00800000E+00  1.00800000E+00  1.00800000E+00  1.00800000E+00  1.00800000E+00
  1.00800000E+00  1.40100000E+01  1.20100000E+01  1.20100000E+01  1.20100000E+01
  1.20100000E+01  1.60000000E+01  1.20100000E+01  1.20100000E+01  1.20100000E+01
  1.20100000E+01  1.40100000E+01  1.20100000E+01  1.20100000E+01  1.20100000E+01
  1.20100000E+01  1.00800000E+00  1.00800000E+00  1.00800000E+00  1.00800000E+00
  1.00800000E+00  1.00800000E+00  1.00800000E+00  1.00800000E+00  1.60000000E+01
  1.20100000E+01  1.20100000E+01  1.60000000E+01  1.20100000E+01  1.20100000E+01
  1.20100000E+01  1.20100000E+01  1.60000000E+01  1.20100000E+01  1.20100000E+01
  1.20100000E+01  1.20100000E+01  1.20100000E+01  1.60000000E+01  1.20100000E+01
  1.60000000E+01  1.20100000E+01  1.20100000E+01  1.20100000E+01  1.20100000E+01
  1.00800000E+00  1.00800000E+00  1.00800000E+00  1.00800000E+00  1.00800000E+00
  1.00800000E+00  1.40100000E+01  1.20100000E+01  1.20100000E+01  1.20100000E+01
  1.20100000E+01  1.60000000E+01  1.20100000E+01  1.20100000E+01  1.20100000E+01
  1.20100000E+01  1.40100000E+01  1.20100000E+01  1.20100000E+01  1.20100000E+01
  1.20100000E+01  1.00800000E+00  1.00800000E+00  1.00800000E+00  1.00800000E+00
  1.00800000E+00  1.00800000E+00  1.00800000E+00  1.00800000E+00  1.60000000E+01
  1.20100000E+01  1.20100000E+01  1.60000000E+01  1.20100000E+01  1.20100000E+01
  1.20100000E+01  1.20100000E+01  1.60000000E+01  1.20100000E+01  1.20100000E+01
  1.20100000E+01  1.20100000E+01  1.20100000E+01  1.60000000E+01  1.20100000E+01
  1.60000000E+01  1.20100000E+01  1.20100000E+01  1.20100000E+01  1.20100000E+01
  1.00800000E+00  1.00800000E+00  1.00800000E+00  1.00800000E+00  1.00800000E+00
  1.00800000E+00  1.40100000E+01  1.20100000E+01  1.20100000E+01  1.20100000E+01
  1.20100000E+01  1.60000000E+01  1.20100000E+01  1.20100000E+01  1.20100000E+01
  1.20100000E+01  1.40100000E+01  1.20100000E+01  1.20100000E+01  1.20100000E+01
  1.20100000E+01  1.00800000E+00  1.00800000E+00  1.00800000E+00  1.00800000E+00
  1.00800000E+00  1.00800000E+00  1.00800000E+00  1.00800000E+00  1.60000000E+01
  1.20100000E+01  1.20100000E+01  1.60000000E+01  1.20100000E+01  1.20100000E+01
  1.20100000E+01  1.20100000E+01  1.60000000E+01  1.20100000E+01  1.20100000E+01
  1.20100000E+01  1.20100000E+01  1.20100000E+01  1.60000000E+01  1.20100000E+01
  1.60000000E+01  1.20100000E+01  1.20100000E+01  1.20100000E+01  1.20100000E+01
  1.00800000E+00  1.00800000E+00  1.00800000E+00  1.00800000E+00  1.00800000E+00
  1.00800000E+00  1.40100000E+01  1.20100000E+01  1.20100000E+01  1.20100000E+01
  1.20100000E+01  1.60000000E+01  1.20100000E+01  1.20100000E+01  1.20100000E+01
  1.20100000E+01  1.40100000E+01  1.20100000E+01  1.20100000E+01  1.20100000E+01
  1.20100000E+01  1.00800000E+00  1.00800000E+00  1.00800000E+00  1.00800000E+00
  1.00800000E+00  1.00800000E+00  1.00800000E+00  1.00800000E+00  1.60000000E+01
  1.20100000E+01  1.20100000E+01  1.60000000E+01  1.20100000E+01  1.20100000E+01
  1.20100000E+01  1.20100000E+01  1.60000000E+01  1.20100000E+01  1.20100000E+01
  1.20100000E+01  1.20100000E+01  1.20100000E+01  1.60000000E+01  1.20100000E+01
  1.60000000E+01  1.20100000E+01  1.20100000E+01  1.20100000E+01  1.20100000E+01
  1.00800000E+00  1.00800000E+00  1.00800000E+00  1.00800000E+00  1.00800000E+00
  1.00800000E+00  1.40100000E+01  1.20100000E+01  1.20100000E+01  1.20100000E+01
  1.20100000E+01  1.60000000E+01  1.20100000E+01  1.20100000E+01  1.20100000E+01
  1.20100000E+01  1.40100000E+01  1.20100000E+01  1.20100000E+01  1.20100000E+01
  1.20100000E+01  1.00800000E+00  1.00800000E+00  1.00800000E+00  1.00800000E+00
  1.00800000E+00  1.00800000E+00  1.00800000E+00  1.00800000E+00  1.60000000E+01
  1.20100000E+01  1.20100000E+01  1.60000000E+01  1.20100000E+01  1.20100000E+01
  1.20100000E+01  1.20100000E+01  1.60000000E+01  1.20100000E+01  1.20100000E+01
  1.20100000E+01  1.20100000E+01  1.20100000E+01  1.60000000E+01  1.20100000E+01
  1.60000000E+01  1.20100000E+01  1.20100000E+01  1.20100000E+01  1.20100000E+01
  1.00800000E+00  1.00800000E+00  1.00800000E+00  1.00800000E+00  1.00800000E+00
  1.00800000E+00  1.40100000E+01  1.20100000E+01  1.20100000E+01  1.20100000E+01
  1.40100000E+01  1.20100000E+01  1.20100000E+01  1.20100000E+01  1.60000000E+01
  1.40100000E+01  1.20100000E+01  1.20100000E+01  1.20100000E+01  1.20100000E+01
  1.20100000E+01  1.20100000E+01  1.60000000E+01  1.20100000E+01  1.60000000E+01
  1.20100000E+01  1.20100000E+01  1.00800000E+00  1.00800000E+00  1.00800000E+00
  1.00800000E+00  1.00800000E+00  1.00800000E+00  1.00800000E+00  1.00800000E+00
  1.00800000E+00  1.00800000E+00  1.00800000E+00  1.00800000E+00  1.00800000E+00
  1.60000000E+01  1.20100000E+01  1.20100000E+01  1.60000000E+01  1.20100000E+01
  1.20100000E+01  1.20100000E+01  1.20100000E+01  1.60000000E+01  1.20100000E+01
  1.20100000E+01  1.20100000E+01  1.20100000E+01  1.20100000E+01  1.60000000E+01
  1.20100000E+01  1.60000000E+01  1.20100000E+01  1.20100000E+01  1.20100000E+01
  1.20100000E+01  1.00800000E+00  1.00800000E+00  1.00800000E+00  1.00800000E+00
  1.00800000E+00  1.00800000E+00  1.40100000E+01  1.20100000E+01  1.20100000E+01
  1.20100000E+01  1.20100000E+01  1.60000000E+01  1.20100000E+01  1.20100000E+01
  1.20100000E+01  1.20100000E+01  1.40100000E+01  1.20100000E+01  1.20100000E+01
  1.20100000E+01  1.20100000E+01  1.00800000E+00  1.00800000E+00  1.00800000E+00
  1.00800000E+00  1.00800000E+00  1.00800000E+00  1.00800000E+00  1.00800000E+00
  1.00800000E+00  1.00800000E+00  1.40100000E+01  1.20100000E+01  1.20100000E+01
  1.20100000E+01  1.20100000E+01  1.60000000E+01  1.20100000E+01  1.20100000E+01
  1.20100000E+01  1.20100000E+01  1.40100000E+01  1.20100000E+01  1.20100000E+01
  1.20100000E+01  1.20100000E+01  1.00800000E+00  1.00800000E+00  1.00800000E+00
  1.00800000E+00  1.00800000E+00  1.00800000E+00  1.00800000E+00  1.00800000E+00
  1.00800000E+00  1.00800000E+00  1.60000000E+01  1.20100000E+01  1.20100000E+01
  1.60000000E+01  1.20100000E+01  1.20100000E+01  1.20100000E+01  1.20100000E+01
  1.60000000E+01  1.20100000E+01  1.20100000E+01  1.20100000E+01  1.20100000E+01
  1.20100000E+01  1.60000000E+01  1.20100000E+01  1.60000000E+01  1.20100000E+01
  1.20100000E+01  1.20100000E+01  1.20100000E+01  1.00800000E+00  1.00800000E+00
  1.00800000E+00  1.00800000E+00  1.00800000E+00  1.00800000E+00  1.40100000E+01
  1.20100000E+01  1.20100000E+01  1.20100000E+01  1.40100000E+01  1.20100000E+01
  1.20100000E+01  1.20100000E+01  1.60000000E+01  1.40100000E+01  1.20100000E+01
  1.20100000E+01  1.20100000E+01  1.20100000E+01  1.20100000E+01  1.20100000E+01
  1.60000000E+01  1.20100000E+01  1.60000000E+01  1.20100000E+01  1.20100000E+01
  1.00800000E+00  1.00800000E+00  1.00800000E+00  1.00800000E+00  1.00800000E+00
  1.00800000E+00  1.00800000E+00  1.00800000E+00  1.00800000E+00  1.00800000E+00
  1.00800000E+00  1.00800000E+00  1.00800000E+00  1.60000000E+01  1.20100000E+01
  1.20100000E+01  1.60000000E+01  1.20100000E+01  1.20100000E+01  1.20100000E+01
  1.20100000E+01  1.60000000E+01  1.20100000E+01  1.20100000E+01  1.20100000E+01
  1.20100000E+01  1.20100000E+01  1.60000000E+01  1.20100000E+01  1.60000000E+01
  1.20100000E+01  1.20100000E+01  1.20100000E+01  1.20100000E+01  1.00800000E+00
  1.00800000E+00  1.00800000E+00  1.00800000E+00  1.00800000E+00  1.00800000E+00
  1.40100000E+01  1.20100000E+01  1.20100000E+01  1.20100000E+01  1.20100000E+01
  1.60000000E+01  1.20100000E+01  1.20100000E+01  1.20100000E+01  1.20100000E+01
  1.40100000E+01  1.20100000E+01  1.20100000E+01  1.20100000E+01  1.20100000E+01
  1.00800000E+00  1.00800000E+00  1.00800000E+00  1.00800000E+00  1.00800000E+00
  1.00800000E+00  1.00800000E+00  1.00800000E+00  1.60000000E+01  1.20100000E+01
  1.20100000E+01  1.60000000E+01  1.20100000E+01  1.20100000E+01  1.20100000E+01
  1.20100000E+01  1.60000000E+01  1.20100000E+01  1.20100000E+01  1.20100000E+01
  1.20100000E+01  1.20100000E+01  1.60000000E+01  1.20100000E+01  1.60000000E+01
  1.20100000E+01  1.20100000E+01  1.20100000E+01  1.20100000E+01  1.00800000E+00
  1.00800000E+00  1.00800000E+00  1.00800000E+00  1.00800000E+00  1.00800000E+00
  1.40100000E+01  1.20100000E+01  1.20100000E+01  1.20100000E+01  1.20100000E+01
  1.60000000E+01  1.20100000E+01  1.20100000E+01  1.20100000E+01  1.20100000E+01
  1.40100000E+01  1.20100000E+01  1.20100000E+01  1.20100000E+01  1.20100000E+01
  1.00800000E+00  1.00800000E+00  1.00800000E+00  1.00800000E+00  1.00800000E+00
  1.00800000E+00  1.00800000E+00  1.00800000E+00  1.60000000E+01  1.20100000E+01
  1.20100000E+01  1.60000000E+01  1.20100000E+01  1.20100000E+01  1.20100000E+01
  1.20100000E+01  1.60000000E+01  1.20100000E+01  1.20100000E+01  1.20100000E+01
  1.20100000E+01  1.20100000E+01  1.60000000E+01  1.20100000E+01  1.60000000E+01
  1.20100000E+01  1.20100000E+01  1.20100000E+01  1.20100000E+01  1.00800000E+00
  1.00800000E+00  1.00800000E+00  1.00800000E+00  1.00800000E+00  1.00800000E+00
  1.40100000E+01  1.20100000E+01  1.20100000E+01  1.20100000E+01  1.20100000E+01
  1.60000000E+01  1.20100000E+01  1.20100000E+01  1.20100000E+01  1.20100000E+01
  1.40100000E+01  1.20100000E+01  1.20100000E+01  1.20100000E+01  1.20100000E+01
  1.00800000E+00  1.00800000E+00  1.00800000E+00  1.00800000E+00  1.00800000E+00
  1.00800000E+00  1.00800000E+00  1.00800000E+00  1.60000000E+01  1.20100000E+01
  1.20100000E+01  1.60000000E+01  1.20100000E+01  1.20100000E+01  1.20100000E+01
  1.20100000E+01  1.60000000E+01  1.20100000E+01  1.20100000E+01  1.20100000E+01
  1.20100000E+01  1.20100000E+01  1.60000000E+01  1.20100000E+01  1.60000000E+01
  1.20100000E+01  1.20100000E+01  1.20100000E+01  1.20100000E+01  1.00800000E+00
  1.00800000E+00  1.00800000E+00  1.00800000E+00  1.00800000E+00  1.00800000E+00
  1.40100000E+01  1.20100000E+01  1.20100000E+01  1.20100000E+01  1.20100000E+01
  1.60000000E+01  1.20100000E+01  1.20100000E+01  1.20100000E+01  1.20100000E+01
  1.40100000E+01  1.20100000E+01  1.20100000E+01  1.20100000E+01  1.20100000E+01
  1.00800000E+00  1.00800000E+00  1.00800000E+00  1.00800000E+00  1.00800000E+00
  1.00800000E+00  1.00800000E+00  1.00800000E+00  1.60000000E+01  1.20100000E+01
  1.20100000E+01  1.60000000E+01  1.20100000E+01  1.20100000E+01  1.20100000E+01
  1.20100000E+01  1.60000000E+01  1.20100000E+01  1.20100000E+01  1.20100000E+01
  1.20100000E+01  1.20100000E+01  1.60000000E+01  1.20100000E+01  1.60000000E+01
  1.20100000E+01  1.20100000E+01  1.20100000E+01  1.20100000E+01  1.00800000E+00
  1.00800000E+00  1.00800000E+00  1.00800000E+00  1.00800000E+00  1.00800000E+00
  1.40100000E+01  1.20100000E+01  1.20100000E+01  1.20100000E+01  1.20100000E+01
  1.60000000E+01  1.20100000E+01  1.20100000E+01  1.20100000E+01  1.20100000E+01
  1.40100000E+01  1.20100000E+01  1.20100000E+01  1.20100000E+01  1.20100000E+01
  1.00800000E+00  1.00800000E+00  1.00800000E+00  1.00800000E+00  1.00800000E+00
  1.00800000E+00  1.00800000E+00  1.00800000E+00  1.60000000E+01  1.20100000E+01
  1.20100000E+01  1.60000000E+01  1.20100000E+01  1.20100000E+01  1.20100000E+01
  1.20100000E+01  1.60000000E+01  1.20100000E+01  1.20100000E+01  1.20100000E+01
  1.20100000E+01  1.20100000E+01  1.60000000E+01  1.20100000E+01  1.60000000E+01
  1.20100000E+01  1.20100000E+01  1.20100000E+01  1.20100000E+01  1.00800000E+00
  1.00800000E+00  1.00800000E+00  1.00800000E+00  1.00800000E+00  1.00800000E+00
  1.40100000E+01  1.20100000E+01  1.20100000E+01  1.20100000E+01  1.40100000E+01
  1.20100000E+01  1.20100000E+01  1.20100000E+01  1.60000000E+01  1.40100000E+01
  1.20100000E+01  1.20100000E+01  1.20100000E+01  1.20100000E+01  1.20100000E+01
  1.20100000E+01  1.60000000E+01  1.20100000E+01  1.60000000E+01  1.20100000E+01
  1.20100000E+01  1.00800000E+00  1.00800000E+00  1.00800000E+00  1.00800000E+00
  1.00800000E+00  1.00800000E+00  1.00800000E+00  1.00800000E+00  1.00800000E+00
  1.00800000E+00  1.00800000E+00  1.00800000E+00  1.00800000E+00  1.60000000E+01
  1.20100000E+01  1.20100000E+01  1.60000000E+01  1.20100000E+01  1.20100000E+01
  1.20100000E+01  1.20100000E+01  1.60000000E+01  1.20100000E+01  1.20100000E+01
  1.20100000E+01  1.20100000E+01  1.20100000E+01  1.60000000E+01  1.20100000E+01
  1.60000000E+01  1.20100000E+01  1.20100000E+01  1.20100000E+01  1.20100000E+01
  1.00800000E+00  1.00800000E+00  1.00800000E+00  1.00800000E+00  1.00800000E+00
  1.00800000E+00  1.40100000E+01  1.20100000E+01  1.20100000E+01  1.20100000E+01
  1.20100000E+01  1.60000000E+01  1.20100000E+01  1.20100000E+01  1.20100000E+01
  1.20100000E+01  1.40100000E+01  1.20100000E+01  1.20100000E+01  1.20100000E+01
  1.20100000E+01  1.00800000E+00  1.00800000E+00  1.00800000E+00  1.00800000E+00
  1.00800000E+00  1.00800000E+00  1.00800000E+00  1.00800000E+00  1.00800000E+00
  1.00800000E+00  1.40100000E+01  1.20100000E+01  1.20100000E+01  1.20100000E+01
  1.20100000E+01  1.60000000E+01  1.20100000E+01  1.20100000E+01  1.20100000E+01
  1.20100000E+01  1.40100000E+01  1.20100000E+01  1.20100000E+01  1.20100000E+01
  1.20100000E+01  1.00800000E+00  1.00800000E+00  1.00800000E+00  1.00800000E+00
  1.00800000E+00  1.00800000E+00  1.00800000E+00  1.00800000E+00  1.00800000E+00
  1.00800000E+00  1.60000000E+01  1.20100000E+01  1.20100000E+01  1.60000000E+01
  1.20100000E+01  1.20100000E+01  1.20100000E+01  1.20100000E+01  1.60000000E+01
  1.20100000E+01  1.20100000E+01  1.20100000E+01  1.20100000E+01  1.20100000E+01
  1.60000000E+01  1.20100000E+01  1.60000000E+01  1.20100000E+01  1.20100000E+01
  1.20100000E+01  1.20100000E+01  1.00800000E+00  1.00800000E+00  1.00800000E+00
  1.00800000E+00  1.00800000E+00  1.00800000E+00  1.40100000E+01  1.20100000E+01
  1.20100000E+01  1.20100000E+01  1.40100000E+01  1.20100000E+01  1.20100000E+01
  1.20100000E+01  1.60000000E+01  1.40100000E+01  1.20100000E+01  1.20100000E+01
  1.20100000E+01  1.20100000E+01  1.20100000E+01  1.20100000E+01  1.60000000E+01
  1.20100000E+01  1.60000000E+01  1.20100000E+01  1.20100000E+01  1.00800000E+00
  1.00800000E+00  1.00800000E+00  1.00800000E+00  1.00800000E+00  1.00800000E+00
  1.00800000E+00  1.00800000E+00  1.00800000E+00  1.00800000E+00  1.00800000E+00
  1.00800000E+00  1.00800000E+00  1.60000000E+01  1.20100000E+01  1.20100000E+01
  1.60000000E+01  1.20100000E+01  1.20100000E+01  1.20100000E+01  1.20100000E+01
  1.60000000E+01  1.20100000E+01  1.20100000E+01  1.20100000E+01  1.20100000E+01
  1.20100000E+01  1.60000000E+01  1.20100000E+01  1.60000000E+01  1.20100000E+01
  1.20100000E+01  1.20100000E+01  1.20100000E+01  1.00800000E+00  1.00800000E+00
  1.00800000E+00  1.00800000E+00  1.00800000E+00  1.00800000E+00  1.40100000E+01
  1.20100000E+01  1.20100000E+01  1.20100000E+01  1.20100000E+01  1.60000000E+01
  1.20100000E+01  1.20100000E+01  1.20100000E+01  1.20100000E+01  1.40100000E+01
  1.20100000E+01  1.20100000E+01  1.20100000E+01  1.20100000E+01  1.00800000E+00
  1.00800000E+00  1.00800000E+00  1.00800000E+00  1.00800000E+00  1.00800000E+00
  1.00800000E+00  1.00800000E+00  1.60000000E+01  1.20100000E+01  1.20100000E+01
  1.60000000E+01  1.20100000E+01  1.20100000E+01  1.20100000E+01  1.20100000E+01
  1.60000000E+01  1.20100000E+01  1.20100000E+01  1.20100000E+01  1.20100000E+01
  1.20100000E+01  1.60000000E+01  1.20100000E+01  1.60000000E+01  1.20100000E+01
  1.20100000E+01  1.20100000E+01  1.20100000E+01  1.00800000E+00  1.00800000E+00
  1.00800000E+00  1.00800000E+00  1.00800000E+00  1.00800000E+00  1.40100000E+01
  1.20100000E+01  1.20100000E+01  1.20100000E+01  1.20100000E+01  1.60000000E+01
  1.20100000E+01  1.20100000E+01  1.20100000E+01  1.20100000E+01  1.40100000E+01
  1.20100000E+01  1.20100000E+01  1.20100000E+01  1.20100000E+01  1.00800000E+00
  1.00800000E+00  1.00800000E+00  1.00800000E+00  1.00800000E+00  1.00800000E+00
  1.00800000E+00  1.00800000E+00  1.60000000E+01  1.20100000E+01  1.20100000E+01
  1.60000000E+01  1.20100000E+01  1.20100000E+01  1.20100000E+01  1.20100000E+01
  1.60000000E+01  1.20100000E+01  1.20100000E+01  1.20100000E+01  1.20100000E+01
  1.20100000E+01  1.60000000E+01  1.20100000E+01  1.60000000E+01  1.20100000E+01
  1.20100000E+01  1.20100000E+01  1.20100000E+01  1.00800000E+00  1.00800000E+00
  1.00800000E+00  1.00800000E+00  1.00800000E+00  1.00800000E+00  1.40100000E+01
  1.20100000E+01  1.20100000E+01  1.20100000E+01  1.20100000E+01  1.60000000E+01
  1.20100000E+01  1.20100000E+01  1.20100000E+01  1.20100000E+01  1.40100000E+01
  1.20100000E+01  1.20100000E+01  1.20100000E+01  1.20100000E+01  1.00800000E+00
  1.00800000E+00  1.00800000E+00  1.00800000E+00  1.00800000E+00  1.00800000E+00
  1.00800000E+00  1.00800000E+00  1.60000000E+01  1.20100000E+01  1.20100000E+01
  1.60000000E+01  1.20100000E+01  1.20100000E+01  1.20100000E+01  1.20100000E+01
  1.60000000E+01  1.20100000E+01  1.20100000E+01  1.20100000E+01  1.20100000E+01
  1.20100000E+01  1.60000000E+01  1.20100000E+01  1.60000000E+01  1.20100000E+01
  1.20100000E+01  1.20100000E+01  1.20100000E+01  1.00800000E+00  1.00800000E+00
  1.00800000E+00  1.00800000E+00  1.00800000E+00  1.00800000E+00  1.40100000E+01
  1.20100000E+01  1.20100000E+01  1.20100000E+01  1.20100000E+01  1.60000000E+01
  1.20100000E+01  1.20100000E+01  1.20100000E+01  1.20100000E+01  1.40100000E+01
  1.20100000E+01  1.20100000E+01  1.20100000E+01  1.20100000E+01  1.00800000E+00
  1.00800000E+00  1.00800000E+00  1.00800000E+00  1.00800000E+00  1.00800000E+00
  1.00800000E+00  1.00800000E+00  1.60000000E+01  1.20100000E+01  1.20100000E+01
  1.60000000E+01  1.20100000E+01  1.20100000E+01  1.20100000E+01  1.20100000E+01
  1.60000000E+01  1.20100000E+01  1.20100000E+01  1.20100000E+01  1.20100000E+01
  1.20100000E+01  1.60000000E+01  1.20100000E+01  1.60000000E+01  1.20100000E+01
  1.20100000E+01  1.20100000E+01  1.20100000E+01  1.00800000E+00  1.00800000E+00
  1.00800000E+00  1.00800000E+00  1.00800000E+00  1.00800000E+00  1.40100000E+01
  1.20100000E+01  1.20100000E+01  1.20100000E+01  1.20100000E+01  1.60000000E+01
  1.20100000E+01  1.20100000E+01  1.20100000E+01  1.20100000E+01  1.40100000E+01
  1.20100000E+01  1.20100000E+01  1.20100000E+01  1.20100000E+01  1.00800000E+00
  1.00800000E+00  1.00800000E+00  1.00800000E+00  1.00800000E+00  1.00800000E+00
  1.00800000E+00  1.00800000E+00  1.60000000E+01  1.20100000E+01  1.20100000E+01
  1.60000000E+01  1.20100000E+01  1.20100000E+01  1.20100000E+01  1.20100000E+01
  1.60000000E+01  1.20100000E+01  1.20100000E+01  1.20100000E+01  1.20100000E+01
  1.20100000E+01  1.60000000E+01  1.20100000E+01  1.60000000E+01  1.20100000E+01
  1.20100000E+01  1.20100000E+01  1.20100000E+01  1.00800000E+00  1.00800000E+00
  1.00800000E+00  1.00800000E+00  1.00800000E+00  1.00800000E+00  1.40100000E+01
  1.20100000E+01  1.20100000E+01  1.20100000E+01  1.40100000E+01  1.20100000E+01
  1.20100000E+01  1.20100000E+01  1.60000000E+01  1.40100000E+01  1.20100000E+01
  1.20100000E+01  1.20100000E+01  1.20100000E+01  1.20100000E+01  1.20100000E+01
  1.60000000E+01  1.20100000E+01  1.60000000E+01  1.20100000E+01  1.20100000E+01
  1.00800000E+00  1.00800000E+00  1.00800000E+00  1.00800000E+00  1.00800000E+00
  1.00800000E+00  1.00800000E+00  1.00800000E+00  1.00800000E+00  1.00800000E+00
  1.00800000E+00  1.00800000E+00  1.00800000E+00  1.60000000E+01  1.20100000E+01
  1.20100000E+01  1.60000000E+01  1.20100000E+01  1.20100000E+01  1.20100000E+01
  1.20100000E+01  1.60000000E+01  1.20100000E+01  1.20100000E+01  1.20100000E+01
  1.20100000E+01  1.20100000E+01  1.60000000E+01  1.20100000E+01  1.60000000E+01
  1.20100000E+01  1.20100000E+01  1.20100000E+01  1.20100000E+01  1.00800000E+00
  1.00800000E+00  1.00800000E+00  1.00800000E+00  1.00800000E+00  1.00800000E+00
  1.40100000E+01  1.20100000E+01  1.20100000E+01  1.20100000E+01  1.20100000E+01
  1.60000000E+01  1.20100000E+01  1.20100000E+01  1.20100000E+01  1.20100000E+01
  1.40100000E+01  1.20100000E+01  1.20100000E+01  1.20100000E+01  1.20100000E+01
  1.00800000E+00  1.00800000E+00  1.00800000E+00  1.00800000E+00  1.00800000E+00
  1.00800000E+00  1.00800000E+00  1.00800000E+00  1.00800000E+00  1.00800000E+00
  1.40100000E+01  1.20100000E+01  1.20100000E+01  1.20100000E+01  1.20100000E+01
  1.60000000E+01  1.20100000E+01  1.20100000E+01  1.20100000E+01  1.20100000E+01
  1.40100000E+01  1.20100000E+01  1.20100000E+01  1.20100000E+01  1.20100000E+01
  1.00800000E+00  1.00800000E+00  1.00800000E+00  1.00800000E+00  1.00800000E+00
  1.00800000E+00  1.00800000E+00  1.00800000E+00  1.00800000E+00  1.00800000E+00
  1.60000000E+01  1.20100000E+01  1.20100000E+01  1.60000000E+01  1.20100000E+01
  1.20100000E+01  1.20100000E+01  1.20100000E+01  1.60000000E+01  1.20100000E+01
  1.20100000E+01  1.20100000E+01  1.20100000E+01  1.20100000E+01  1.60000000E+01
  1.20100000E+01  1.60000000E+01  1.20100000E+01  1.20100000E+01  1.20100000E+01
  1.20100000E+01  1.00800000E+00  1.00800000E+00  1.00800000E+00  1.00800000E+00
  1.00800000E+00  1.00800000E+00  1.40100000E+01  1.20100000E+01  1.20100000E+01
  1.20100000E+01  1.40100000E+01  1.20100000E+01  1.20100000E+01  1.20100000E+01
  1.60000000E+01  1.40100000E+01  1.20100000E+01  1.20100000E+01  1.20100000E+01
  1.20100000E+01  1.20100000E+01  1.20100000E+01  1.60000000E+01  1.20100000E+01
  1.60000000E+01  1.20100000E+01  1.20100000E+01  1.00800000E+00  1.00800000E+00
  1.00800000E+00  1.00800000E+00  1.00800000E+00  1.00800000E+00  1.00800000E+00
  1.00800000E+00  1.00800000E+00  1.00800000E+00  1.00800000E+00  1.00800000E+00
  1.00800000E+00  1.60000000E+01  1.20100000E+01  1.20100000E+01  1.60000000E+01
  1.20100000E+01  1.20100000E+01  1.20100000E+01  1.20100000E+01  1.60000000E+01
  1.20100000E+01  1.20100000E+01  1.20100000E+01  1.20100000E+01  1.20100000E+01
  1.60000000E+01  1.20100000E+01  1.60000000E+01  1.20100000E+01  1.20100000E+01
  1.20100000E+01  1.20100000E+01  1.00800000E+00  1.00800000E+00  1.00800000E+00
  1.00800000E+00  1.00800000E+00  1.00800000E+00  1.40100000E+01  1.20100000E+01
  1.20100000E+01  1.20100000E+01  1.20100000E+01  1.60000000E+01  1.20100000E+01
  1.20100000E+01  1.20100000E+01  1.20100000E+01  1.40100000E+01  1.20100000E+01
  1.20100000E+01  1.20100000E+01  1.20100000E+01  1.00800000E+00  1.00800000E+00
  1.00800000E+00  1.00800000E+00  1.00800000E+00  1.00800000E+00  1.00800000E+00
  1.00800000E+00  1.60000000E+01  1.20100000E+01  1.20100000E+01  1.60000000E+01
  1.20100000E+01  1.20100000E+01  1.20100000E+01  1.20100000E+01  1.60000000E+01
  1.20100000E+01  1.20100000E+01  1.20100000E+01  1.20100000E+01  1.20100000E+01
  1.60000000E+01  1.20100000E+01  1.60000000E+01  1.20100000E+01  1.20100000E+01
  1.20100000E+01  1.20100000E+01  1.00800000E+00  1.00800000E+00  1.00800000E+00
  1.00800000E+00  1.00800000E+00  1.00800000E+00  1.40100000E+01  1.20100000E+01
  1.20100000E+01  1.20100000E+01  1.20100000E+01  1.60000000E+01  1.20100000E+01
  1.20100000E+01  1.20100000E+01  1.20100000E+01  1.40100000E+01  1.20100000E+01
  1.20100000E+01  1.20100000E+01  1.20100000E+01  1.00800000E+00  1.00800000E+00
  1.00800000E+00  1.00800000E+00  1.00800000E+00  1.00800000E+00  1.00800000E+00
  1.00800000E+00  1.60000000E+01  1.20100000E+01  1.20100000E+01  1.60000000E+01
  1.20100000E+01  1.20100000E+01  1.20100000E+01  1.20100000E+01  1.60000000E+01
  1.20100000E+01  1.20100000E+01  1.20100000E+01  1.20100000E+01  1.20100000E+01
  1.60000000E+01  1.20100000E+01  1.60000000E+01  1.20100000E+01  1.20100000E+01
  1.20100000E+01  1.20100000E+01  1.00800000E+00  1.00800000E+00  1.00800000E+00
  1.00800000E+00  1.00800000E+00  1.00800000E+00  1.40100000E+01  1.20100000E+01
  1.20100000E+01  1.20100000E+01  1.20100000E+01  1.60000000E+01  1.20100000E+01
  1.20100000E+01  1.20100000E+01  1.20100000E+01  1.40100000E+01  1.20100000E+01
  1.20100000E+01  1.20100000E+01  1.20100000E+01  1.00800000E+00  1.00800000E+00
  1.00800000E+00  1.00800000E+00  1.00800000E+00  1.00800000E+00  1.00800000E+00
  1.00800000E+00  1.60000000E+01  1.20100000E+01  1.20100000E+01  1.60000000E+01
  1.20100000E+01  1.20100000E+01  1.20100000E+01  1.20100000E+01  1.60000000E+01
  1.20100000E+01  1.20100000E+01  1.20100000E+01  1.20100000E+01  1.20100000E+01
  1.60000000E+01  1.20100000E+01  1.60000000E+01  1.20100000E+01  1.20100000E+01
  1.20100000E+01  1.20100000E+01  1.00800000E+00  1.00800000E+00  1.00800000E+00
  1.00800000E+00  1.00800000E+00  1.00800000E+00  1.40100000E+01  1.20100000E+01
  1.20100000E+01  1.20100000E+01  1.20100000E+01  1.60000000E+01  1.20100000E+01
  1.20100000E+01  1.20100000E+01  1.20100000E+01  1.40100000E+01  1.20100000E+01
  1.20100000E+01  1.20100000E+01  1.20100000E+01  1.00800000E+00  1.00800000E+00
  1.00800000E+00  1.00800000E+00  1.00800000E+00  1.00800000E+00  1.00800000E+00
  1.00800000E+00  1.60000000E+01  1.20100000E+01  1.20100000E+01  1.60000000E+01
  1.20100000E+01  1.20100000E+01  1.20100000E+01  1.20100000E+01  1.60000000E+01
  1.20100000E+01  1.20100000E+01  1.20100000E+01  1.20100000E+01  1.20100000E+01
  1.60000000E+01  1.20100000E+01  1.60000000E+01  1.20100000E+01  1.20100000E+01
  1.20100000E+01  1.20100000E+01  1.00800000E+00  1.00800000E+00  1.00800000E+00
  1.00800000E+00  1.00800000E+00  1.00800000E+00  1.40100000E+01  1.20100000E+01
  1.20100000E+01  1.20100000E+01  1.20100000E+01  1.60000000E+01  1.20100000E+01
  1.20100000E+01  1.20100000E+01  1.20100000E+01  1.40100000E+01  1.20100000E+01
  1.20100000E+01  1.20100000E+01  1.20100000E+01  1.00800000E+00  1.00800000E+00
  1.00800000E+00  1.00800000E+00  1.00800000E+00  1.00800000E+00  1.00800000E+00
  1.00800000E+00  1.60000000E+01  1.20100000E+01  1.20100000E+01  1.60000000E+01
  1.20100000E+01  1.20100000E+01  1.20100000E+01  1.20100000E+01  1.60000000E+01
  1.20100000E+01  1.20100000E+01  1.20100000E+01  1.20100000E+01  1.20100000E+01
  1.60000000E+01  1.20100000E+01  1.60000000E+01  1.20100000E+01  1.20100000E+01
  1.20100000E+01  1.20100000E+01  1.00800000E+00  1.00800000E+00  1.00800000E+00
  1.00800000E+00  1.00800000E+00  1.00800000E+00  1.40100000E+01  1.20100000E+01
  1.20100000E+01  1.20100000E+01  1.40100000E+01  1.20100000E+01  1.20100000E+01
  1.20100000E+01  1.60000000E+01  1.40100000E+01  1.20100000E+01  1.20100000E+01
  1.20100000E+01  1.20100000E+01  1.20100000E+01  1.20100000E+01  1.60000000E+01
  1.20100000E+01  1.60000000E+01  1.20100000E+01  1.20100000E+01  1.00800000E+00
  1.00800000E+00  1.00800000E+00  1.00800000E+00  1.00800000E+00  1.00800000E+00
  1.00800000E+00  1.00800000E+00  1.00800000E+00  1.00800000E+00  1.00800000E+00
  1.00800000E+00  1.00800000E+00  1.60000000E+01  1.20100000E+01  1.20100000E+01
  1.60000000E+01  1.20100000E+01  1.20100000E+01  1.20100000E+01  1.20100000E+01
  1.60000000E+01  1.20100000E+01  1.20100000E+01  1.20100000E+01  1.20100000E+01
  1.20100000E+01  1.60000000E+01  1.20100000E+01  1.60000000E+01  1.20100000E+01
  1.20100000E+01  1.20100000E+01  1.20100000E+01  1.00800000E+00  1.00800000E+00
  1.00800000E+00  1.00800000E+00  1.00800000E+00  1.00800000E+00  1.40100000E+01
  1.20100000E+01  1.20100000E+01  1.20100000E+01  1.20100000E+01  1.60000000E+01
  1.20100000E+01  1.20100000E+01  1.20100000E+01  1.20100000E+01  1.40100000E+01
  1.20100000E+01  1.20100000E+01  1.20100000E+01  1.20100000E+01  1.00800000E+00
  1.00800000E+00  1.00800000E+00  1.00800000E+00  1.00800000E+00  1.00800000E+00
  1.00800000E+00  1.00800000E+00  1.00800000E+00  1.00800000E+00
%FLAG ATOM_TYPE_INDEX                                                           
%FORMAT(10I8)                                                                   
       1       2       2       2       2       3       2       2       2       2
       4       2       2       2       2       5       5       6       6       6
       6       6       6       6       6       7       2       2       7       2
       2       2       2       3       2       2       2       2       2       7
       2       7       2       2       2       2       6       6       6       6
       6       6       4       2       2       2       4       2       2       2
       7       8       9       9       2       2       2       2      10       2
      10       2       2       6       6       5      11      11      12      12
       6       6      13      13       6       6       7       2       2       7
       2       2       2       2       3       2       2       2       2       2
       7       2       7       2       2       2       2       6       6       6
       6       6       6       4       2       2       2       2       3       2
       2       2       2       4       2       2       2       2       6       6
       6       6       6       6       6       6       7       2       2       7
       2       2       2       2       3       2       2       2       2       2
       7       2       7       2       2       2       2       6       6       6
       6       6       6       4       2       2       2       2       3       2
       2       2       2       4       2       2       2       2       6       6
       6       6       6       6       6       6       7       2       2       7
       2       2       2       2       3       2       2       2       2       2
       7       2       7       2       2       2       2       6       6       6
       6       6       6       4       2       2       2       2       3       2
       2       2       2       4       2       2       2       2       6       6
       6       6       6       6       6       6       7       2       2       7
       2       2       2       2       3       2       2       2       2       2
       7       2       7       2       2       2       2       6       6       6
       6       6       6       4       2       2       2       2       3       2
       2       2       2       4       2       2       2       2       6       6
       6       6       6       6       6       6       7       2       2       7
       2       2       2       2       3       2       2       2       2       2
       7       2       7       2       2       2       2       6       6       6
       6       6       6       4       2       2       2       2       3       2
       2       2       2       4       2       2       2       2       6       6
       6       6       6       6       6       6       7       2       2       7
       2       2       2       2       3       2       2       2       2       2
       7       2       7       2       2       2       2       6       6       6
       6       6       6       4       2       2       2       4       2       2
       2       7       8       9       9       2       2       2       2      10
       2      10       2       2       6       6       5      11      11      12
      12       6       6      13      13       6       6       7       2       2
       7       2       2       2       2       3       2       2       2       2
       2       7       2       7       2       2       2       2       6       6
       6       6       6       6       4       2       2       2       2       3
       2       2       2       2       1       2       2       2       2       6
       6       6       6       5       5       6       6       6       6       1
       2       2       2       2       3       2       2       2       2       4
       2       2       2       2       5       5       6       6       6       6
       6       6       6       6       7       2       2       7       2       2
       2       2       3       2       2       2       2       2       7       2
       7       2       2       2       2       6       6       6       6       6
       6       4       2       2       2       4       2       2       2       7
       8       9       9       2       2       2       2      10       2      10
       2       2       6       6       5      11      11      12      12       6
       6      13      13       6       6       7       2       2       7       2
       2       2       2       3       2       2       2       2       2       7
       2       7       2       2       2       2       6       6       6       6
       6       6       4       2       2       2       2       3       2       2
       2       2       4       2       2       2       2       6       6       6
       6       6       6       6       6       7       2       2       7       2
       2       2       2       3       2       2       2       2       2       7
       2       7       2       2       2       2       6       6       6       6
       6       6       4       2       2       2       2       3       2       2
       2       2       4       2       2       2       2       6       6       6
       6       6       6       6       6       7       2       2       7       2
       2       2       2       3       2       2       2       2       2       7
       2       7       2       2       2       2       6       6       6       6
       6       6       4       2       2       2       2       3       2       2
       2       2       4       2       2       2       2       6       6       6
       6       6       6       6       6       7       2       2       7       2
       2       2       2       3       2       2       2       2       2       7
       2       7       2       2       2       2       6       6       6       6
       6       6       4       2       2       2       2       3       2       2
       2       2       4       2       2       2       2       6       6       6
       6       6       6       6       6       7       2       2       7       2
       2       2       2       3       2       2       2       2       2       7
       2       7       2       2       2       2       6       6       6       6
       6       6       4       2       2       2       2       3       2       2
       2       2       4       2       2       2       2       6       6       6
       6       6       6       6       6       7       2       2       7       2
       2       2       2       3       2       2       2       2       2       7
       2       7       2       2       2       2       6       6       6       6
       6       6       4       2       2       2       4       2       2       2
       7       8       9       9       2       2       2       2      10       2
      10       2       2       6       6       5      11      11      12      12
       6       6      13      13       6       6       7       2       2       7
       2       2       2       2       3       2       2       2       2       2
       7       2       7       2       2       2       2       6       6       6
       6       6       6       4       2       2       2       2       3       2
       2       2       2       1       2       2       2       2       6       6
       6       6       5       5       6       6       6       6       1       2
       2       2       2       3       2       2       2       2       4       2
       2       2       2       5       5       6       6       6       6       6
       6       6       6       7       2       2       7       2       2       2
       2       3       2       2       2       2       2       7       2       7
       2       2       2       2       6       6       6       6       6       6
       4       2       2       2       4       2       2       2       7       8
       9       9       2       2       2       2      10       2      10       2
       2       6       6       5      11      11      12      12       6       6
      13      13       6       6       7       2       2       7       2       2
       2       2       3       2       2       2       2       2       7       2
       7       2       2       2       2       6       6       6       6       6
       6       4       2       2       2       2       3       2       2       2
       2       4       2       2       2       2       6       6       6       6
       6       6       6       6       7       2       2       7       2       2
       2       2       3       2       2       2       2       2       7       2
       7       2       2       2       2       6       6       6       6       6
       6       4       2       2       2       2       3       2       2       2
       2       4       2       2       2       2       6       6       6       6
       6       6       6       6       7       2       2       7       2       2
       2       2       3       2       2       2       2       2       7       2
       7       2       2       2       2       6       6       6       6       6
       6       4       2       2       2       2       3       2       2       2
       2       4       2       2       2       2       6       6       6       6
       6       6       6       6       7       2       2       7       2       2
       2       2       3       2       2       2       2       2       7       2
       7       2       2       2       2       6       6       6       6       6
       6       4       2       2       2       2       3       2       2       2
       2       4       2       2       2       2       6       6       6       6
       6       6       6       6       7       2       2       7       2       2
       2       2       3       2       2       2       2       2       7       2
       7       2       2       2       2       6       6       6       6       6
       6       4       2       2       2       2       3       2       2       2
       2       4       2       2       2       2       6       6       6       6
       6       6       6       6       7       2       2       7       2       2
       2       2       3       2       2       2       2       2       7       2
       7       2       2       2       2       6       6       6       6       6
       6       4       2       2       2       4       2       2       2       7
       8       9       9       2       2       2       2      10       2      10
       2       2       6       6       5      11      11      12      12       6
       6      13      13       6       6       7       2       2       7       2
       2       2       2       3       2       2       2       2       2       7
       2       7       2       2       2       2       6       6       6       6
       6       6       4       2       2       2       2       3       2       2
       2       2       1       2       2       2       2       6       6       6
       6       5       5       6       6       6       6       1       2       2
       2       2       3       2       2       2       2       4       2       2
       2       2       5       5       6       6       6       6       6       6
       6       6       7       2       2       7       2       2       2       2
       3       2       2       2       2       2       7       2       7       2
       2       2       2       6       6       6       6       6       6       4
       2       2       2       4       2       2       2       7       8       9
       9       2       2       2       2      10       2      10       2       2
       6       6       5      11      11      12      12       6       6      13
      13       6       6       7       2       2       7       2       2       2
       2       3       2       2       2       2       2       7       2       7
       2       2       2       2       6       6       6       6       6       6
       4       2       2       2       2       3       2       2       2       2
       4       2       2       2       2       6       6       6       6       6
       6       6       6       7       2       2       7       2       2       2
       2       3       2       2       2       2       2       7       2       7
       2       2       2       2       6       6       6       6       6       6
       4       2       2       2       2       3       2       2       2       2
       4       2       2       2       2       6       6       6       6       6
       6       6       6       7       2       2       7       2       2       2
       2       3       2       2       2       2       2       7       2       7
       2       2       2       2       6       6       6       6       6       6
       4       2       2       2       2       3       2       2       2       2
       4       2       2       2       2       6       6       6       6       6
       6       6       6       7       2       2       7       2       2       2
       2       3       2       2       2       2       2       7       2       7
       2       2       2       2       6       6       6       6       6       6
       4       2       2       2       2       3       2       2       2       2
       4       2       2       2       2       6       6       6       6       6
       6       6       6       7       2       2       7       2       2       2
       2       3       2       2       2       2       2       7       2       7
       2       2       2       2       6       6       6       6       6       6
       4       2       2       2       2       3       2       2       2       2
       4       2       2       2       2       6       6       6       6       6
       6       6       6       7       2       2       7       2       2       2
       2       3       2       2       2       2       2       7       2       7
       2       2       2       2       6       6       6       6       6       6
       4       2       2       2       4       2       2       2       7       8
       9       9       2       2       2       2      10       2      10       2
       2       6       6       5      11      11      12      12       6       6
      13      13       6       6       7       2       2       7       2       2
       2       2       3       2       2       2       2       2       7       2
       7       2       2       2       2       6       6       6       6       6
       6       4       2       2       2       2       3       2       2       2
       2       1       2       2       2       2       6       6       6       6
       5       5       6       6       6       6       1       2       2       2
       2       3       2       2       2       2       4       2       2       2
       2       5       5       6       6       6       6       6       6       6
       6       7       2       2       7       2       2       2       2       3
       2       2       2       2       2       7       2       7       2       2
       2       2       6       6       6       6       6       6       4       2
       2       2       4       2       2       2       7       8       9       9
       2       2       2       2      10       2      10       2       2       6
       6       5      11      11      12      12       6       6      13      13
       6       6       7       2       2       7       2       2       2       2
       3       2       2       2       2       2       7       2       7       2
       2       2       2       6       6       6       6       6       6       4
       2       2       2       2       3       2       2       2       2       4
       2       2       2       2       6       6       6       6       6       6
       6       6       7       2       2       7       2       2       2       2
       3       2       2       2       2       2       7       2       7       2
       2       2       2       6       6       6       6       6       6       4
       2       2       2       2       3       2       2       2       2       4
       2       2       2       2       6       6       6       6       6       6
       6       6       7       2       2       7       2       2       2       2
       3       2       2       2       2       2       7       2       7       2
       2       2       2       6       6       6       6       6       6       4
       2       2       2       2       3       2       2       2       2       4
       2       2       2       2       6       6       6       6       6       6
       6       6       7       2       2       7       2       2       2       2
       3       2       2       2       2       2       7       2       7       2
       2       2       2       6       6       6       6       6       6       4
       2       2       2       2       3       2       2       2       2       4
       2       2       2       2       6       6       6       6       6       6
       6       6       7       2       2       7       2       2       2       2
       3       2       2       2       2       2       7       2       7       2
       2       2       2       6       6       6       6       6       6       4
       2       2       2       2       3       2       2       2       2       4
       2       2       2       2       6       6       6       6       6       6
       6       6       7       2       2       7       2       2       2       2
       3       2       2       2       2       2       7       2       7       2
       2       2       2       6       6       6       6       6       6       4
       2       2       2       4       2       2       2       7       8       9
       9       2       2       2       2      10       2      10       2       2
       6       6       5      11      11      12      12       6       6      13
      13       6       6       7       2       2       7       2       2       2
       2       3       2       2       2       2       2       7       2       7
       2       2       2       2       6       6       6       6       6       6
       4       2       2       2       2       3       2       2       2       2
       1       2       2       2       2       6       6       6       6       5
       5       6       6       6       6       1       2       2       2       2
       3       2       2       2       2       4       2       2       2       2
       5       5       6       6       6       6       6       6       6       6
       7       2       2       7       2       2       2       2       3       2
       2       2       2       2       7       2       7       2       2       2
       2       6       6       6       6       6       6       4       2       2
       2       4       2       2       2       7       8       9       9       2
       2       2       2      10       2      10       2       2       6       6
       5      11      11      12      12       6       6      13      13       6
       6       7       2       2       7       2       2       2       2       3
       2       2       2       2       2       7       2       7       2       2
       2       2       6       6       6       6       6       6       4       2
       2       2       2       3       2       2       2       2       4       2
       2       2       2       6       6       6       6       6       6       6
       6       7       2       2       7       2       2       2       2       3
       2       2       2       2       2       7       2       7       2       2
       2       2       6       6       6       6       6       6       4       2
       2       2       2       3       2       2       2       2       4       2
       2       2       2       6       6       6       6       6       6       6
       6       7       2       2       7       2       2       2       2       3
       2       2       2       2       2       7       2       7       2       2
       2       2       6       6       6       6       6       6       4       2
       2       2       2       3       2       2       2       2       4       2
       2       2       2       6       6       6       6       6       6       6
       6       7       2       2       7       2       2       2       2       3
       2       2       2       2       2       7       2       7       2       2
       2       2       6       6       6       6       6       6       4       2
       2       2       2       3       2       2       2       2       4       2
       2       2       2       6       6       6       6       6       6       6
       6       7       2       2       7       2       2       2       2       3
       2       2       2       2       2       7       2       7       2       2
       2       2       6       6       6       6       6       6       4       2
       2       2       2       3       2       2       2       2       4       2
       2       2       2       6       6       6       6       6       6       6
       6       7       2       2       7       2       2       2       2       3
       2       2       2       2       2       7       2       7       2       2
       2       2       6       6       6       6       6       6       4       2
       2       2       4       2       2       2       7       8       9       9
       2       2       2       2      10       2      10       2       2       6
       6       5      11      11      12      12       6       6      13      13
       6       6       7       2       2       7       2       2       2       2
       3       2       2       2       2       2       7       2       7       2
       2       2       2       6       6       6       6       6       6       4
       2       2       2       2       3       2       2       2       2       1
       2       2       2       2       6       6       6       6       5       5
       6       6       6       6
%FLAG NUMBER_EXCLUDED_ATOMS                                                     
%FORMAT(10I8)                                                                   
       9      11      10       8      10      11      10       8       9      13
      12       6       3       4       5       1       1       1       1       1
       1       1       1       1       1       5       8       7       3       8
       7       8       9      11      10       8       9      11      10       4
       8       4       5       3       3       2       1       1       1       1
       1       1       7       9      10      13      12      10       8      10
       4       9       9      12      13      10       8       9       5       6
       3       5       3       1       1       2       3       2       1       1
       1       1       1       1       1       1       5       8       7       3
       8       7       8       9      11      10       8       9      11      10
       4       8       4       5       3       3       2       1       1       1
       1       1       1       7       9       8       8      10      11      10
       8       9      13      12       6       3       4       3       1       1
       1       1       1       1       1       1       5       8       7       3
       8       7       8       9      11      10       8       9      11      10
       4       8       4       5       3       3       2       1       1       1
       1       1       1       7       9       8       8      10      11      10
       8       9      13      12       6       3       4       3       1       1
       1       1       1       1       1       1       5       8       7       3
       8       7       8       9      11      10       8       9      11      10
       4       8       4       5       3       3       2       1       1       1
       1       1       1       7       9       8       8      10      11      10
       8       9      13      12       6       3       4       3       1       1
       1       1       1       1       1       1       5       8       7       3
       8       7       8       9      11      10       8       9      11      10
       4       8       4       5       3       3       2       1       1       1
       1       1       1       7       9       8       8      10      11      10
       8       9      13      12       6       3       4       3       1       1
       1       1       1       1       1       1       5       8       7       3
       8       7       8       9      11      10       8       9      11      10
       4       8       4       5       3       3       2       1       1       1
       1       1       1       7       9       8       8      10      11      10
       8       9      13      12       6       3       4       3       1       1
       1       1       1       1       1       1       5       8       7       3
       8       7       8       9      11      10       8       9      11      10
       4       8       4       5       3       3       2       1       1       1
       1       1       1       7       9      10      13      12      10       8
      10       4       9       9      12      13      10       8       9       5
       6       3       5       3       1       1       2       3       2       1
       1       1       1       1       1       1       1       5       8       7
       3       8       7       8       9      11      10       8       9      11
      10       4       8       4       5       3       3       2       1       1
       1       1       1       1       7       9       8       8      10      11
      10       8       9       9       6       6       3       4       3       1
       1       1       1       1       1       1       1       1       1       9
      11      10       8      10      11      10       8       9      13      12
       6       3       4       5       1       1       1       1       1       1
       1       1       1       1       5       8       7       3       8       7
       8       9      11      10       8       9      11      10       4       8
       4       5       3       3       2       1       1       1       1       1
       1       7       9      10      13      12      10       8      10       4
       9       9      12      13      10       8       9       5       6       3
       5       3       1       1       2       3       2       1       1       1
       1       1       1       1       1       5       8       7       3       8
       7       8       9      11      10       8       9      11      10       4
       8       4       5       3       3       2       1       1       1       1
       1       1       7       9       8       8      10      11      10       8
       9      13      12       6       3       4       3       1       1       1
       1       1       1       1       1       5       8       7       3       8
       7       8       9      11      10       8       9      11      10       4
       8       4       5       3       3       2       1       1       1       1
       1       1       7       9       8       8      10      11      10       8
       9      13      12       6       3       4       3       1       1       1
       1       1       1       1       1       5       8       7       3       8
       7       8       9      11      10       8       9      11      10       4
       8       4       5       3       3       2       1       1       1       1
       1       1       7       9       8       8      10      11      10       8
       9      13      12       6       3       4       3       1       1       1
       1       1       1       1       1       5       8       7       3       8
       7       8       9      11      10       8       9      11      10       4
       8       4       5       3       3       2       1       1       1       1
       1       1       7       9       8       8      10      11      10       8
       9      13      12       6       3       4       3       1       1       1
       1       1       1       1       1       5       8       7       3       8
       7       8       9      11      10       8       9      11      10       4
       8       4       5       3       3       2       1       1       1       1
       1       1       7       9       8       8      10      11      10       8
       9      13      12       6       3       4       3       1       1       1
       1       1       1       1       1       5       8       7       3       8
       7       8       9      11      10       8       9      11      10       4
       8       4       5       3       3       2       1       1       1       1
       1       1       7       9      10      13      12      10       8      10
       4       9       9      12      13      10       8       9       5       6
       3       5       3       1       1       2       3       2       1       1
       1       1       1       1       1       1       5       8       7       3
       8       7       8       9      11      10       8       9      11      10
       4       8       4       5       3       3       2       1       1       1
       1       1       1       7       9       8       8      10      11      10
       8       9       9       6       6       3       4       3       1       1
       1       1       1       1       1       1       1       1       9      11
      10       8      10      11      10       8       9      13      12       6
       3       4       5       1       1       1       1       1       1       1
       1       1       1       5       8       7       3       8       7       8
       9      11      10       8       9      11      10       4       8       4
       5       3       3       2       1       1       1       1       1       1
       7       9      10      13      12      10       8      10       4       9
       9      12      13      10       8       9       5       6       3       5
       3       1       1       2       3       2       1       1       1       1
       1       1       1       1       5       8       7       3       8       7
       8       9      11      10       8       9      11      10       4       8
       4       5       3       3       2       1       1       1       1       1
       1       7       9       8       8      10      11      10       8       9
      13      12       6       3       4       3       1       1       1       1
       1       1       1       1       5       8       7       3       8       7
       8       9      11      10       8       9      11      10       4       8
       4       5       3       3       2       1       1       1       1       1
       1       7       9       8       8      10      11      10       8       9
      13      12       6       3       4       3       1       1       1       1
       1       1       1       1       5       8       7       3       8       7
       8       9      11      10       8       9      11      10       4       8
       4       5       3       3       2       1       1       1       1       1
       1       7       9       8       8      10      11      10       8       9
      13      12       6       3       4       3       1       1       1       1
       1       1       1       1       5       8       7       3       8       7
       8       9      11      10       8       9      11      10       4       8
       4       5       3       3       2       1       1       1       1       1
       1       7       9       8       8      10      11      10       8       9
      13      12       6       3       4       3       1       1       1       1
       1       1       1       1       5       8       7       3       8       7
       8       9      11      10       8       9      11      10       4       8
       4       5       3       3       2       1       1       1       1       1
       1       7       9       8       8      10      11      10       8       9
      13      12       6       3       4       3       1       1       1       1
       1       1       1       1       5       8       7       3       8       7
       8       9      11      10       8       9      11      10       4       8
       4       5       3       3       2       1       1       1       1       1
       1       7       9      10      13      12      10       8      10       4
       9       9      12      13      10       8       9       5       6       3
       5       3       1       1       2       3       2       1       1       1
       1       1       1       1       1       5       8       7       3       8
       7       8       9      11      10       8       9      11      10       4
       8       4       5       3       3       2       1       1       1       1
       1       1       7       9       8       8      10      11      10       8
       9       9       6       6       3       4       3       1       1       1
       1       1       1       1       1       1       1       9      11      10
       8      10      11      10       8       9      13      12       6       3
       4       5       1       1       1       1       1       1       1       1
       1       1       5       8       7       3       8       7       8       9
      11      10       8       9      11      10       4       8       4       5
       3       3       2       1       1       1       1       1       1       7
       9      10      13      12      10       8      10       4       9       9
      12      13      10       8       9       5       6       3       5       3
       1       1       2       3       2       1       1       1       1       1
       1       1       1       5       8       7       3       8       7       8
       9      11      10       8       9      11      10       4       8       4
       5       3       3       2       1       1       1       1       1       1
       7       9       8       8      10      11      10       8       9      13
      12       6       3       4       3       1       1       1       1       1
       1       1       1       5       8       7       3       8       7       8
       9      11      10       8       9      11      10       4       8       4
       5       3       3       2       1       1       1       1       1       1
       7       9       8       8      10      11      10       8       9      13
      12       6       3       4       3       1       1       1       1       1
       1       1       1       5       8       7       3       8       7       8
       9      11      10       8       9      11      10       4       8       4
       5       3       3       2       1       1       1       1       1       1
       7       9       8       8      10      11      10       8       9      13
      12       6       3       4       3       1       1       1       1       1
       1       1       1       5       8       7       3       8       7       8
       9      11      10       8       9      11      10       4       8       4
       5       3       3       2       1       1       1       1       1       1
       7       9       8       8      10      11      10       8       9      13
      12       6       3       4       3       1       1       1       1       1
       1       1       1       5       8       7       3       8       7       8
       9      11      10       8       9      11      10       4       8       4
       5       3       3       2       1       1       1       1       1       1
       7       9       8       8      10      11      10       8       9      13
      12       6       3       4       3       1       1       1       1       1
       1       1       1       5       8       7       3       8       7       8
       9      11      10       8       9      11      10       4       8       4
       5       3       3       2       1       1       1       1       1       1
       7       9      10      13      12      10       8      10       4       9
       9      12      13      10       8       9       5       6       3       5
       3       1       1       2       3       2       1       1       1       1
       1       1       1       1       5       8       7       3       8       7
       8       9      11      10       8       9      11      10       4       8
       4       5       3       3       2       1       1       1       1       1
       1       7       9       8       8      10      11      10       8       9
       9       6       6       3       4       3       1       1       1       1
       1       1       1       1       1       1       9      11      10       8
      10      11      10       8       9      13      12       6       3       4
       5       1       1       1       1       1       1       1       1       1
       1       5       8       7       3       8       7       8       9      11
      10       8       9      11      10       4       8       4       5       3
       3       2       1       1       1       1       1       1       7       9
      10      13      12      10       8      10       4       9       9      12
      13      10       8       9       5       6       3       5       3       1
       1       2       3       2       1       1       1       1       1       1
       1       1       5       8       7       3       8       7       8       9
      11      10       8       9      11      10       4       8       4       5
       3       3       2       1       1       1       1       1       1       7
       9       8       8      10      11      10       8       9      13      12
       6       3       4       3       1       1       1       1       1       1
       1       1       5       8       7       3       8       7       8       9
      11      10       8       9      11      10       4       8       4       5
       3       3       2       1       1       1       1       1       1       7
       9       8       8      10      11      10       8       9      13      12
       6       3       4       3       1       1       1       1       1       1
       1       1       5       8       7       3       8       7       8       9
      11      10       8       9      11      10       4       8       4       5
       3       3       2       1       1       1       1       1       1       7
       9       8       8      10      11      10       8       9      13      12
       6       3       4       3       1       1       1       1       1       1
       1       1       5       8       7       3       8       7       8       9
      11      10       8       9      11      10       4       8       4       5
       3       3       2       1       1       1       1       1       1       7
       9       8       8      10      11      10       8       9      13      12
       6       3       4       3       1       1       1       1       1       1
       1       1       5       8       7       3       8       7       8       9
      11      10       8       9      11      10       4       8       4       5
       3       3       2       1       1       1       1       1       1       7
       9       8       8      10      11      10       8       9      13      12
       6       3       4       3       1       1       1       1       1       1
       1       1       5       8       7       3       8       7       8       9
      11      10       8       9      11      10       4       8       4       5
       3       3       2       1       1       1       1       1       1       7
       9      10      13      12      10       8      10       4       9       9
      12      13      10       8       9       5       6       3       5       3
       1       1       2       3       2       1       1       1       1       1
       1       1       1       5       8       7       3       8       7       8
       9      11      10       8       9      11      10       4       8       4
       5       3       3       2       1       1       1       1       1       1
       7       9       8       8      10      11      10       8       9       9
       6       6       3       4       3       1       1       1       1       1
       1       1       1       1       1       9      11      10       8      10
      11      10       8       9      13      12       6       3       4       5
       1       1       1       1       1       1       1       1       1       1
       5       8       7       3       8       7       8       9      11      10
       8       9      11      10       4       8       4       5       3       3
       2       1       1       1       1       1       1       7       9      10
      13      12      10       8      10       4       9       9      12      13
      10       8       9       5       6       3       5       3       1       1
       2       3       2       1       1       1       1       1       1       1
       1       5       8       7       3       8       7       8       9      11
      10       8       9      11      10       4       8       4       5       3
       3       2       1       1       1       1       1       1       7       9
       8       8      10      11      10       8       9      13      12       6
       3       4       3       1       1       1       1       1       1       1
       1       5       8       7       3       8       7       8       9      11
      10       8       9      11      10       4       8       4       5       3
       3       2       1       1       1       1       1       1       7       9
       8       8      10      11      10       8       9      13      12       6
       3       4       3       1       1       1       1       1       1       1
       1       5       8       7       3       8       7       8       9      11
      10       8       9      11      10       4       8       4       5       3
       3       2       1       1       1       1       1       1       7       9
       8       8      10      11      10       8       9      13      12       6
       3       4       3       1       1       1       1       1       1       1
       1       5       8       7       3       8       7       8       9      11
      10       8       9      11      10       4       8       4       5       3
       3       2       1       1       1       1       1       1       7       9
       8       8      10      11      10       8       9      13      12       6
       3       4       3       1       1       1       1       1       1       1
       1       5       8       7       3       8       7       8       9      11
      10       8       9      11      10       4       8       4       5       3
       3       2       1       1       1       1       1       1       7       9
       8       8      10      11      10       8       9      13      12       6
       3       4       3       1       1       1       1       1       1       1
       1       5       8       7       3       8       7       8       9      11
      10       8       9      11      10       4       8       4       5       3
       3       2       1       1       1       1       1       1       7       9
      10      13      12      10       8      10       4       9       9      12
      13      10       8       9       5       6       3       5       3       1
       1       2       3       2       1       1       1       1       1       1
       1       1       5       8       7       3       8       7       8       9
      11      10       8       9      11      10       4       8       4       5
       3       3       2       1       1       1       1       1       1       7
       9       8       8      10      11      10       8       9       9       6
       6       3       4       3       1       1       1       1       1       1
       1       1       1       1
%FLAG NONBONDED_PARM_INDEX                                                      
%FORMAT(10I8)                                                                   
       1       2       4       7      11      16      22      29      37      46
      56      67      79       2       3       5       8      12      17      23
      30      38      47      57      68      80       4       5       6       9
      13      18      24      31      39      48      58      69      81       7
       8       9      10      14      19      25      32      40      49      59
      70      82      11      12      13      14      15      20      26      33
      41      50      60      71      83      16      17      18      19      20
      21      27      34      42      51      61      72      84      22      23
      24      25      26      27      28      35      43      52      62      73
      85      29      30      31      32      33      34      35      36      44
      53      63      74      86      37      38      39      40      41      42
      43      44      45      54      64      75      87      46      47      48
      49      50      51      52      53      54      55      65      76      88
      56      57      58      59      60      61      62      63      64      65
      66      77      89      67      68      69      70      71      72      73
      74      75      76      77      78      90      79      80      81      82
      83      84      85      86      87      88      89      90      91
%FLAG RESIDUE_LABEL                                                             
%FORMAT(20a4)                                                                   
POL POL POL POL POL POL 
%FLAG RESIDUE_POINTER                                                           
%FORMAT(10I8)                                                                   
       1     450     899    1348    1797    2246
%FLAG BOND_FORCE_CONSTANT                                                       
%FORMAT(5E16.8)                                                                 
  3.95700000E+02  3.78600000E+02  5.29500000E+02  3.47100000E+02  3.57500000E+02
  3.15200000E+02  6.52600000E+02  2.72700000E+02  3.56200000E+02  5.63500000E+02
  3.65600000E+02  2.50300000E+02  3.75900000E+02  2.32500000E+02  3.75900000E+02
  2.63800000E+02  5.27300000E+02  3.56200000E+02
%FLAG BOND_EQUIL_VALUE                                                          
%FORMAT(5E16.8)                                                                 
  1.08600000E+00  1.39800000E+00  1.01200000E+00  1.38600000E+00  1.37000000E+00
  1.41200000E+00  1.21800000E+00  1.49100000E+00  1.37900000E+00  9.73000000E-01
  1.36400000E+00  1.51600000E+00  1.09700000E+00  1.53800000E+00  1.09700000E+00
  1.46200000E+00  1.01300000E+00  1.37900000E+00
%FLAG ANGLE_FORCE_CONSTANT                                                      
%FORMAT(5E16.8)                                                                 
  3.95000000E+01  4.87000000E+01  8.62000000E+01  4.88000000E+01  6.88000000E+01
  8.73000000E+01  6.71000000E+01  8.56000000E+01  8.54000000E+01  8.62000000E+01
  1.13800000E+02  6.64000000E+01  6.57000000E+01  6.56000000E+01  3.90000000E+01
  3.88000000E+01  8.72000000E+01  5.07000000E+01  4.73000000E+01  4.69000000E+01
  6.56000000E+01  4.61000000E+01  6.52000000E+01  4.68000000E+01  8.32000000E+01
  6.15000000E+01  1.13800000E+02  6.53000000E+01  4.87000000E+01  8.54000000E+01
%FLAG ANGLE_EQUIL_VALUE                                                         
%FORMAT(5E16.8)                                                                 
  2.00922390E+00  2.09230160E+00  2.11097664E+00  2.02580453E+00  2.09474507E+00
  2.08043336E+00  2.09247614E+00  2.09771213E+00  2.01149283E+00  2.13977458E+00
  2.14762857E+00  2.10015559E+00  2.15914774E+00  2.21796536E+00  1.87762601E+00
  1.89298492E+00  2.09265067E+00  1.89507931E+00  1.92806605E+00  1.91218355E+00
  2.10783504E+00  2.05390434E+00  1.95599133E+00  1.91637234E+00  1.94796281E+00
  1.90031530E+00  2.14762857E+00  2.10643878E+00  2.05163542E+00  2.01149283E+00
%FLAG DIHEDRAL_FORCE_CONSTANT                                                   
%FORMAT(5E16.8)                                                                 
  3.62500000E+00  1.05000000E+00  9.00000000E-01  1.00000000E+00  2.50000000E+00
  5.22500000E-01  9.50000000E-01  1.55555556E-01  0.00000000E+00  8.35000000E-01
  0.00000000E+00  2.45000000E-01  2.10000000E-01  2.00000000E+00  1.02000000E+00
  1.70000000E-01  1.00000000E-01  1.10000000E+00  1.05000000E+01
%FLAG DIHEDRAL_PERIODICITY                                                      
%FORMAT(5E16.8)                                                                 
  2.00000000E+00  2.00000000E+00  2.00000000E+00  2.00000000E+00  2.00000000E+00
  2.00000000E+00  2.00000000E+00  3.00000000E+00  2.00000000E+00  2.00000000E+00
  2.00000000E+00  2.00000000E+00  3.00000000E+00  1.00000000E+00  1.00000000E+00
  3.00000000E+00  4.00000000E+00  2.00000000E+00  2.00000000E+00
%FLAG DIHEDRAL_PHASE                                                            
%FORMAT(5E16.8)                                                                 
  3.14159400E+00  3.14159400E+00  3.14159400E+00  3.14159400E+00  3.14159400E+00
  3.14159400E+00  3.14159400E+00  0.00000000E+00  0.00000000E+00  3.14159400E+00
  3.14159400E+00  3.14159400E+00  0.00000000E+00  0.00000000E+00  3.14159400E+00
  0.00000000E+00  3.14159400E+00  3.14159400E+00  3.14159400E+00
%FLAG SCEE_SCALE_FACTOR                                                         
%FORMAT(5E16.8)                                                                 
  1.20000000E+00  1.20000000E+00  1.20000000E+00  1.20000000E+00  1.20000000E+00
  1.20000000E+00  1.20000000E+00  1.20000000E+00  1.20000000E+00  1.20000000E+00
  1.20000000E+00  1.20000000E+00  1.20000000E+00  1.20000000E+00  1.20000000E+00
  1.20000000E+00  1.20000000E+00  0.00000000E+00  0.00000000E+00
%FLAG SCNB_SCALE_FACTOR                                                         
%FORMAT(5E16.8)                                                                 
  2.00000000E+00  2.00000000E+00  2.00000000E+00  2.00000000E+00  2.00000000E+00
  2.00000000E+00  2.00000000E+00  2.00000000E+00  2.00000000E+00  2.00000000E+00
  2.00000000E+00  2.00000000E+00  2.00000000E+00  2.00000000E+00  2.00000000E+00
  2.00000000E+00  2.00000000E+00  0.00000000E+00  0.00000000E+00
%FLAG SOLTY                                                                     
%FORMAT(5E16.8)                                                                 
  0.00000000E+00  0.00000000E+00  0.00000000E+00  0.00000000E+00  0.00000000E+00
  0.00000000E+00  0.00000000E+00  0.00000000E+00  0.00000000E+00  0.00000000E+00
  0.00000000E+00  0.00000000E+00  0.00000000E+00  0.00000000E+00
%FLAG LENNARD_JONES_ACOEF                                                       
%FORMAT(5E16.8)                                                                 
  9.54875571E+05  8.15855629E+05  6.96551276E+05  5.23754919E+05  4.46121722E+05
  2.83662575E+05  8.22806637E+05  7.01106848E+05  4.46307018E+05  7.02078680E+05
  2.10567903E+03  1.71458823E+03  9.46795083E+02  1.52360475E+03  1.34728399E-01
  8.91217989E+04  7.52549148E+04  4.65732396E+04  7.35931098E+04  9.04434904E+01
  6.90855956E+03  6.08567325E+05  5.17507491E+05  3.27367585E+05  5.15491878E+05
  9.87857350E+02  5.27277400E+04  3.76435470E+05  8.19705544E+05  6.99381362E+05
  4.47026838E+05  7.02755693E+05  1.65195713E+03  7.48403283E+04  5.17814271E+05
  7.01825028E+05  9.87370297E+05  8.43969952E+05  5.42502534E+05  8.52084164E+05
  2.23577481E+03  9.27554496E+04  6.30925504E+05  8.48258258E+05  1.02073671E+06
  6.94638423E+05  5.92438683E+05  3.78207390E+05  5.94682930E+05  1.36475542E+03
  6.30298721E+04  4.37717034E+05  5.94304835E+05  7.18991463E+05  5.03152404E+05
  6.69267216E+04  5.63013422E+04  3.44374471E+04  5.45183252E+04  5.24570081E+01
  4.88692384E+03  3.86646725E+04  5.58085097E+04  6.97998263E+04  4.69084694E+04
  3.39005767E+03  9.62844277E+04  8.12662403E+04  5.02224902E+04  7.93773615E+04
  9.47421632E+01  7.41026906E+03  5.68021765E+04  8.07866982E+04  1.00235148E+05
  6.80216136E+04  5.22955465E+03  7.94617769E+03  2.82631147E+02  2.25372434E+02
  1.16469347E+02  1.89434762E+02  2.61760843E-03  8.53132435E+00  1.15813907E+02
  2.13197010E+02  3.03553352E+02  1.74176419E+02  4.36660257E+00  8.80612241E+00
  1.10360882E-05
%FLAG LENNARD_JONES_BCOEF                                                       
%FORMAT(5E16.8)                                                                 
  6.54052181E+02  5.85909304E+02  5.24668528E+02  4.34643024E+02  3.88758656E+02
  2.87011518E+02  6.67466109E+02  5.97113873E+02  4.41089616E+02  6.77820248E+02
  1.67892226E+01  1.46824710E+01  1.01016461E+01  1.57004457E+01  7.34107347E-02
  1.23036209E+02  1.09570372E+02  7.98066064E+01  1.22913863E+02  2.14252117E+00
  2.10929191E+01  5.58212938E+02  4.98871431E+02  3.67361018E+02  5.64804067E+02
  1.22938581E+01  1.01173582E+02  4.69350655E+02  6.13169384E+02  5.48900066E+02
  4.06301077E+02  6.24158704E+02  1.50468782E+01  1.14083104E+02  5.21008860E+02
  5.74088001E+02  6.58763033E+02  5.90251928E+02  4.38146883E+02  6.72777963E+02
  1.71355763E+01  1.24325688E+02  5.62969425E+02  6.17825399E+02  6.63431737E+02
  5.32518426E+02  4.76608379E+02  3.52573684E+02  5.41675626E+02  1.29026271E+01
  9.87712192E+01  4.51916854E+02  4.98393522E+02  5.36620538E+02  4.32634597E+02
  1.13671113E+02  1.01040256E+02  7.31636661E+01  1.12788003E+02  1.73959275E+00
  1.89134207E+01  9.23664132E+01  1.05029928E+02  1.14981426E+02  9.08431526E+01
  1.67944276E+01  1.36341592E+02  1.21392023E+02  8.83545880E+01  1.36094315E+02
  2.33785449E+00  2.32899892E+01  1.11953944E+02  1.26366740E+02  1.37787728E+02
  1.09393126E+02  2.08590256E+01  2.57122925E+01  5.09294489E+00  4.40751799E+00
  2.93355636E+00  4.58384710E+00  8.47240681E-03  5.44840215E-01  3.48534600E+00
  4.47571103E+00  5.22789272E+00  3.81654050E+00  4.15568027E-01  5.90150328E-01
  4.55498033E-04
%FLAG BONDS_INC_HYDROGEN                                                        
%FORMAT(10I8)                                                                   
    1314    1344       1    1311    1341       1    1308    1338       1    1305
    1335       1    1302    1329       3    1302    1332       3    1296    1326
       1    1293    1323       1    1281    1320       1    1278    1317       1
    1248    1269       1    1245    1266       1    1224    1263       1    1221
    1260       1    1209    1257       1    1206    1254       1    1149    1188
       1    1146    1185       1    1143    1182      10    1137    1179      10
    1131    1176       1    1128    1173       1    1122    1167      13    1122
    1170      13    1119    1161      15    1119    1164      15    1116    1158
      17    1104    1155       1    1095    1152       1    1065    1086       1
    1062    1083       1    1041    1080       1    1038    1077       1    1026
    1074       1    1023    1071       1     981    1005       1     978    1002
       1     975     999       1     972     996       1     963     993       1
     960     990       1     948     987       1     945     984       1     915
     936       1     912     933       1     891     930       1     888     927
       1     876     924       1     873     921       1     831     855       1
     828     852       1     825     849       1     822     846       1     813
     843       1     810     840       1     798     837       1     795     834
       1     765     786       1     762     783       1     741     780       1
     738     777       1     726     774       1     723     771       1     681
     705       1     678     702       1     675     699       1     672     696
       1     663     693       1     660     690       1     648     687       1
     645     684       1     615     636       1     612     633       1     591
     630       1     588     627       1     576     624       1     573     621
       1     531     555       1     528     552       1     525     549       1
     522     546       1     513     543       1     510     540       1     498
     537       1     495     534       1     465     486       1     462     483
       1     441     480       1     438     477       1     426     474       1
     423     471       1     381     405       1     378     402       1     375
     399       1     372     396       1     363     393       1     360     390
       1     348     387       1     345     384       1     315     336       1
     312     333       1     291     330       1     288     327       1     276
     324       1     273     321       1     216     255       1     213     252
       1     210     249      10     204     246      10     198     243       1
     195     240       1     189     234      13     189     237      13     186
     228      15     186     231      15     183     225      17     171     222
       1     162     219       1     132     153       1     129     150       1
     108     147       1     105     144       1      93     141       1      90
     138       1      42      72       1      39      69       1      36      66
       1      33      63       1      24      60       1      21      57       1
       9      54       1       6      51       1       0      45       3       0
      48       3    2661    2691       1    2658    2688       1    2655    2685
       1    2652    2682       1    2649    2676       3    2649    2679       3
    2643    2673       1    2640    2670       1    2628    2667       1    2625
    2664       1    2595    2616       1    2592    2613       1    2571    2610
       1    2568    2607       1    2556    2604       1    2553    2601       1
    2496    2535       1    2493    2532       1    2490    2529      10    2484
    2526      10    2478    2523       1    2475    2520       1    2469    2514
      13    2469    2517      13    2466    2508      15    2466    2511      15
    2463    2505      17    2451    2502       1    2442    2499       1    2412
    2433       1    2409    2430       1    2388    2427       1    2385    2424
       1    2373    2421       1    2370    2418       1    2328    2352       1
    2325    2349       1    2322    2346       1    2319    2343       1    2310
    2340       1    2307    2337       1    2295    2334       1    2292    2331
       1    2262    2283       1    2259    2280       1    2238    2277       1
    2235    2274       1    2223    2271       1    2220    2268       1    2178
    2202       1    2175    2199       1    2172    2196       1    2169    2193
       1    2160    2190       1    2157    2187       1    2145    2184       1
    2142    2181       1    2112    2133       1    2109    2130       1    2088
    2127       1    2085    2124       1    2073    2121       1    2070    2118
       1    2028    2052       1    2025    2049       1    2022    2046       1
    2019    2043       1    2010    2040       1    2007    2037       1    1995
    2034       1    1992    2031       1    1962    1983       1    1959    1980
       1    1938    1977       1    1935    1974       1    1923    1971       1
    1920    1968       1    1878    1902       1    1875    1899       1    1872
    1896       1    1869    1893       1    1860    1890       1    1857    1887
       1    1845    1884       1    1842    1881       1    1812    1833       1
    1809    1830       1    1788    1827       1    1785    1824       1    1773
    1821       1    1770    1818       1    1728    1752       1    1725    1749
       1    1722    1746       1    1719    1743       1    1710    1740       1
    1707    1737       1    1695    1734       1    1692    1731       1    1662
    1683       1    1659    1680       1    1638    1677       1    1635    1674
       1    1623    1671       1    1620    1668       1    1563    1602       1
    1560    1599       1    1557    1596      10    1551    1593      10    1545
    1590       1    1542    1587       1    1536    1581      13    1536    1584
      13    1533    1575      15    1533    1578      15    1530    1572      17
    1518    1569       1    1509    1566       1    1479    1500       1    1476
    1497       1    1455    1494       1    1452    1491       1    1440    1488
       1    1437    1485       1    1389    1419       1    1386    1416       1
    1383    1413       1    1380    1410       1    1371    1407       1    1368
    1404       1    1356    1401       1    1353    1398       1    1347    1392
       3    1347    1395       3    4008    4038       1    4005    4035       1
    4002    4032       1    3999    4029       1    3996    4023       3    3996
    4026       3    3990    4020       1    3987    4017       1    3975    4014
       1    3972    4011       1    3942    3963       1    3939    3960       1
    3918    3957       1    3915    3954       1    3903    3951       1    3900
    3948       1    3843    3882       1    3840    3879       1    3837    3876
      10    3831    3873      10    3825    3870       1    3822    3867       1
    3816    3861      13    3816    3864      13    3813    3855      15    3813
    3858      15    3810    3852      17    3798    3849       1    3789    3846
       1    3759    3780       1    3756    3777       1    3735    3774       1
    3732    3771       1    3720    3768       1    3717    3765       1    3675
    3699       1    3672    3696       1    3669    3693       1    3666    3690
       1    3657    3687       1    3654    3684       1    3642    3681       1
    3639    3678       1    3609    3630       1    3606    3627       1    3585
    3624       1    3582    3621       1    3570    3618       1    3567    3615
       1    3525    3549       1    3522    3546       1    3519    3543       1
    3516    3540       1    3507    3537       1    3504    3534       1    3492
    3531       1    3489    3528       1    3459    3480       1    3456    3477
       1    3435    3474       1    3432    3471       1    3420    3468       1
    3417    3465       1    3375    3399       1    3372    3396       1    3369
    3393       1    3366    3390       1    3357    3387       1    3354    3384
       1    3342    3381       1    3339    3378       1    3309    3330       1
    3306    3327       1    3285    3324       1    3282    3321       1    3270
    3318       1    3267    3315       1    3225    3249       1    3222    3246
       1    3219    3243       1    3216    3240       1    3207    3237       1
    3204    3234       1    3192    3231       1    3189    3228       1    3159
    3180       1    3156    3177       1    3135    3174       1    3132    3171
       1    3120    3168       1    3117    3165       1    3075    3099       1
    3072    3096       1    3069    3093       1    3066    3090       1    3057
    3087       1    3054    3084       1    3042    3081       1    3039    3078
       1    3009    3030       1    3006    3027       1    2985    3024       1
    2982    3021       1    2970    3018       1    2967    3015       1    2910
    2949       1    2907    2946       1    2904    2943      10    2898    2940
      10    2892    2937       1    2889    2934       1    2883    2928      13
    2883    2931      13    2880    2922      15    2880    2925      15    2877
    2919      17    2865    2916       1    2856    2913       1    2826    2847
       1    2823    2844       1    2802    2841       1    2799    2838       1
    2787    2835       1    2784    2832       1    2736    2766       1    2733
    2763       1    2730    2760       1    2727    2757       1    2718    2754
       1    2715    2751       1    2703    2748       1    2700    2745       1
    2694    2739       3    2694    2742       3    5355    5385       1    5352
    5382       1    5349    5379       1    5346    5376       1    5343    5370
       3    5343    5373       3    5337    5367       1    5334    5364       1
    5322    5361       1    5319    5358       1    5289    5310       1    5286
    5307       1    5265    5304       1    5262    5301       1    5250    5298
       1    5247    5295       1    5190    5229       1    5187    5226       1
    5184    5223      10    5178    5220      10    5172    5217       1    5169
    5214       1    5163    5208      13    5163    5211      13    5160    5202
      15    5160    5205      15    5157    5199      17    5145    5196       1
    5136    5193       1    5106    5127       1    5103    5124       1    5082
    5121       1    5079    5118       1    5067    5115       1    5064    5112
       1    5022    5046       1    5019    5043       1    5016    5040       1
    5013    5037       1    5004    5034       1    5001    5031       1    4989
    5028       1    4986    5025       1    4956    4977       1    4953    4974
       1    4932    4971       1    4929    4968       1    4917    4965       1
    4914    4962       1    4872    4896       1    4869    4893       1    4866
    4890       1    4863    4887       1    4854    4884       1    4851    4881
       1    4839    4878       1    4836    4875       1    4806    4827       1
    4803    4824       1    4782    4821       1    4779    4818       1    4767
    4815       1    4764    4812       1    4722    4746       1    4719    4743
       1    4716    4740       1    4713    4737       1    4704    4734       1
    4701    4731       1    4689    4728       1    4686    4725       1    4656
    4677       1    4653    4674       1    4632    4671       1    4629    4668
       1    4617    4665       1    4614    4662       1    4572    4596       1
    4569    4593       1    4566    4590       1    4563    4587       1    4554
    4584       1    4551    4581       1    4539    4578       1    4536    4575
       1    4506    4527       1    4503    4524       1    4482    4521       1
    4479    4518       1    4467    4515       1    4464    4512       1    4422
    4446       1    4419    4443       1    4416    4440       1    4413    4437
       1    4404    4434       1    4401    4431       1    4389    4428       1
    4386    4425       1    4356    4377       1    4353    4374       1    4332
    4371       1    4329    4368       1    4317    4365       1    4314    4362
       1    4257    4296       1    4254    4293       1    4251    4290      10
    4245    4287      10    4239    4284       1    4236    4281       1    4230
    4275      13    4230    4278      13    4227    4269      15    4227    4272
      15    4224    4266      17    4212    4263       1    4203    4260       1
    4173    4194       1    4170    4191       1    4149    4188       1    4146
    4185       1    4134    4182       1    4131    4179       1    4083    4113
       1    4080    4110       1    4077    4107       1    4074    4104       1
    4065    4101       1    4062    4098       1    4050    4095       1    4047
    4092       1    4041    4086       3    4041    4089       3    6702    6732
       1    6699    6729       1    6696    6726       1    6693    6723       1
    6690    6717       3    6690    6720       3    6684    6714       1    6681
    6711       1    6669    6708       1    6666    6705       1    6636    6657
       1    6633    6654       1    6612    6651       1    6609    6648       1
    6597    6645       1    6594    6642       1    6537    6576       1    6534
    6573       1    6531    6570      10    6525    6567      10    6519    6564
       1    6516    6561       1    6510    6555      13    6510    6558      13
    6507    6549      15    6507    6552      15    6504    6546      17    6492
    6543       1    6483    6540       1    6453    6474       1    6450    6471
       1    6429    6468       1    6426    6465       1    6414    6462       1
    6411    6459       1    6369    6393       1    6366    6390       1    6363
    6387       1    6360    6384       1    6351    6381       1    6348    6378
       1    6336    6375       1    6333    6372       1    6303    6324       1
    6300    6321       1    6279    6318       1    6276    6315       1    6264
    6312       1    6261    6309       1    6219    6243       1    6216    6240
       1    6213    6237       1    6210    6234       1    6201    6231       1
    6198    6228       1    6186    6225       1    6183    6222       1    6153
    6174       1    6150    6171       1    6129    6168       1    6126    6165
       1    6114    6162       1    6111    6159       1    6069    6093       1
    6066    6090       1    6063    6087       1    6060    6084       1    6051
    6081       1    6048    6078       1    6036    6075       1    6033    6072
       1    6003    6024       1    6000    6021       1    5979    6018       1
    5976    6015       1    5964    6012       1    5961    6009       1    5919
    5943       1    5916    5940       1    5913    5937       1    5910    5934
       1    5901    5931       1    5898    5928       1    5886    5925       1
    5883    5922       1    5853    5874       1    5850    5871       1    5829
    5868       1    5826    5865       1    5814    5862       1    5811    5859
       1    5769    5793       1    5766    5790       1    5763    5787       1
    5760    5784       1    5751    5781       1    5748    5778       1    5736
    5775       1    5733    5772       1    5703    5724       1    5700    5721
       1    5679    5718       1    5676    5715       1    5664    5712       1
    5661    5709       1    5604    5643       1    5601    5640       1    5598
    5637      10    5592    5634      10    5586    5631       1    5583    5628
       1    5577    5622      13    5577    5625      13    5574    5616      15
    5574    5619      15    5571    5613      17    5559    5610       1    5550
    5607       1    5520    5541       1    5517    5538       1    5496    5535
       1    5493    5532       1    5481    5529       1    5478    5526       1
    5430    5460       1    5427    5457       1    5424    5454       1    5421
    5451       1    5412    5448       1    5409    5445       1    5397    5442
       1    5394    5439       1    5388    5433       3    5388    5436       3
    8049    8079       1    8046    8076       1    8043    8073       1    8040
    8070       1    8037    8064       3    8037    8067       3    8031    8061
       1    8028    8058       1    8016    8055       1    8013    8052       1
    7983    8004       1    7980    8001       1    7959    7998       1    7956
    7995       1    7944    7992       1    7941    7989       1    7884    7923
       1    7881    7920       1    7878    7917      10    7872    7914      10
    7866    7911       1    7863    7908       1    7857    7902      13    7857
    7905      13    7854    7896      15    7854    7899      15    7851    7893
      17    7839    7890       1    7830    7887       1    7800    7821       1
    7797    7818       1    7776    7815       1    7773    7812       1    7761
    7809       1    7758    7806       1    7716    7740       1    7713    7737
       1    7710    7734       1    7707    7731       1    7698    7728       1
    7695    7725       1    7683    7722       1    7680    7719       1    7650
    7671       1    7647    7668       1    7626    7665       1    7623    7662
       1    7611    7659       1    7608    7656       1    7566    7590       1
    7563    7587       1    7560    7584       1    7557    7581       1    7548
    7578       1    7545    7575       1    7533    7572       1    7530    7569
       1    7500    7521       1    7497    7518       1    7476    7515       1
    7473    7512       1    7461    7509       1    7458    7506       1    7416
    7440       1    7413    7437       1    7410    7434       1    7407    7431
       1    7398    7428       1    7395    7425       1    7383    7422       1
    7380    7419       1    7350    7371       1    7347    7368       1    7326
    7365       1    7323    7362       1    7311    7359       1    7308    7356
       1    7266    7290       1    7263    7287       1    7260    7284       1
    7257    7281       1    7248    7278       1    7245    7275       1    7233
    7272       1    7230    7269       1    7200    7221       1    7197    7218
       1    7176    7215       1    7173    7212       1    7161    7209       1
    7158    7206       1    7116    7140       1    7113    7137       1    7110
    7134       1    7107    7131       1    7098    7128       1    7095    7125
       1    7083    7122       1    7080    7119       1    7050    7071       1
    7047    7068       1    7026    7065       1    7023    7062       1    7011
    7059       1    7008    7056       1    6951    6990       1    6948    6987
       1    6945    6984      10    6939    6981      10    6933    6978       1
    6930    6975       1    6924    6969      13    6924    6972      13    6921
    6963      15    6921    6966      15    6918    6960      17    6906    6957
       1    6897    6954       1    6867    6888       1    6864    6885       1
    6843    6882       1    6840    6879       1    6828    6876       1    6825
    6873       1    6777    6807       1    6774    6804       1    6771    6801
       1    6768    6798       1    6759    6795       1    6756    6792       1
    6744    6789       1    6741    6786       1    6735    6780       3    6735
    6783       3
%FLAG BONDS_WITHOUT_HYDROGEN                                                    
%FORMAT(10I8)                                                                   
    1311    1314       2    1305    1308       2    1299    1302       4    1299
    1305       2    1296    1299       2    1293    1296       2    1290    1293
       2    1290    1308       2    1287    1290       5    1284    1287       5
    1284    1311       2    1281    1284       2    1278    1281       2    1275
    1278       2    1275    1314       2    1272    1275       6    1248    1251
       2    1242    1245       2    1236    1239       7    1236    1242       8
    1236    1272       9    1230    1233       7    1230    1272       9    1227
    1230       8    1227    1242       2    1224    1227       2    1221    1224
       2    1218    1221       2    1218    1245       2    1215    1218       5
    1212    1215       5    1212    1248       2    1209    1212       2    1206
    1209       2    1203    1206       2    1203    1251       2    1197    1200
       7    1197    1203       8    1194    1251       8    1191    1194       7
    1140    1143      11    1140    1146       2    1134    1137      11    1134
    1140       2    1131    1134       2    1128    1131       2    1125    1128
       2    1125    1146       2    1122    1125      12    1119    1122      14
    1116    1119      16    1110    1113       7    1110    1116      18    1107
    1110       8    1107    1149       2    1104    1107       2    1101    1194
       9    1101    1197       9    1098    1101       6    1098    1104       2
    1095    1098       2    1092    1095       2    1092    1149       2    1089
    1092       6    1065    1068       2    1059    1062       2    1053    1056
       7    1053    1059       8    1053    1089       9    1047    1050       7
    1047    1089       9    1044    1047       8    1044    1059       2    1041
    1044       2    1038    1041       2    1035    1038       2    1035    1062
       2    1032    1035       5    1029    1032       5    1029    1065       2
    1026    1029       2    1023    1026       2    1020    1023       2    1020
    1068       2    1014    1017       7    1014    1020       8    1011    1068
       8    1008    1011       7     978     981       2     972     975       2
     969    1011       9     969    1014       9     966     969       6     966
     972       2     963     966       2     960     963       2     957     960
       2     957     975       2     954     957       5     951     954       5
     951     978       2     948     951       2     945     948       2     942
     945       2     942     981       2     939     942       6     915     918
       2     909     912       2     903     906       7     903     909       8
     903     939       9     897     900       7     897     939       9     894
     897       8     894     909       2     891     894       2     888     891
       2     885     888       2     885     912       2     882     885       5
     879     882       5     879     915       2     876     879       2     873
     876       2     870     873       2     870     918       2     864     867
       7     864     870       8     861     918       8     858     861       7
     828     831       2     822     825       2     819     861       9     819
     864       9     816     819       6     816     822       2     813     816
       2     810     813       2     807     810       2     807     825       2
     804     807       5     801     804       5     801     828       2     798
     801       2     795     798       2     792     795       2     792     831
       2     789     792       6     765     768       2     759     762       2
     753     756       7     753     759       8     753     789       9     747
     750       7     747     789       9     744     747       8     744     759
       2     741     744       2     738     741       2     735     738       2
     735     762       2     732     735       5     729     732       5     729
     765       2     726     729       2     723     726       2     720     723
       2     720     768       2     714     717       7     714     720       8
     711     768       8     708     711       7     678     681       2     672
     675       2     669     711       9     669     714       9     666     669
       6     666     672       2     663     666       2     660     663       2
     657     660       2     657     675       2     654     657       5     651
     654       5     651     678       2     648     651       2     645     648
       2     642     645       2     642     681       2     639     642       6
     615     618       2     609     612       2     603     606       7     603
     609       8     603     639       9     597     600       7     597     639
       9     594     597       8     594     609       2     591     594       2
     588     591       2     585     588       2     585     612       2     582
     585       5     579     582       5     579     615       2     576     579
       2     573     576       2     570     573       2     570     618       2
     564     567       7     564     570       8     561     618       8     558
     561       7     528     531       2     522     525       2     519     561
       9     519     564       9     516     519       6     516     522       2
     513     516       2     510     513       2     507     510       2     507
     525       2     504     507       5     501     504       5     501     528
       2     498     501       2     495     498       2     492     495       2
     492     531       2     489     492       6     465     468       2     459
     462       2     453     456       7     453     459       8     453     489
       9     447     450       7     447     489       9     444     447       8
     444     459       2     441     444       2     438     441       2     435
     438       2     435     462       2     432     435       5     429     432
       5     429     465       2     426     429       2     423     426       2
     420     423       2     420     468       2     414     417       7     414
     420       8     411     468       8     408     411       7     378     381
       2     372     375       2     369     411       9     369     414       9
     366     369       6     366     372       2     363     366       2     360
     363       2     357     360       2     357     375       2     354     357
       5     351     354       5     351     378       2     348     351       2
     345     348       2     342     345       2     342     381       2     339
     342       6     315     318       2     309     312       2     303     306
       7     303     309       8     303     339       9     297     300       7
     297     339       9     294     297       8     294     309       2     291
     294       2     288     291       2     285     288       2     285     312
       2     282     285       5     279     282       5     279     315       2
     276     279       2     273     276       2     270     273       2     270
     318       2     264     267       7     264     270       8     261     318
       8     258     261       7     207     210      11     207     213       2
     201     204      11     201     207       2     198     201       2     195
     198       2     192     195       2     192     213       2     189     192
      12     186     189      14     183     186      16     177     180       7
     177     183      18     174     177       8     174     216       2     171
     174       2     168     261       9     168     264       9     165     168
       6     165     171       2     162     165       2     159     162       2
     159     216       2     156     159       6     132     135       2     126
     129       2     120     123       7     120     126       8     120     156
       9     114     117       7     114     156       9     111     114       8
     111     126       2     108     111       2     105     108       2     102
     105       2     102     129       2      99     102       5      96      99
       5      96     132       2      93      96       2      90      93       2
      87      90       2      87     135       2      81      84       7      81
      87       8      78     135       8      75      78       7      39      42
       2      33      36       2      30      78       9      30      81       9
      27      30       6      27      33       2      24      27       2      21
      24       2      18      21       2      18      36       2      15      18
       5      12      15       5      12      39       2       9      12       2
       6       9       2       3       6       2       3      42       2       0
       3       4    2658    2661       2    2652    2655       2    2646    2649
       4    2646    2652       2    2643    2646       2    2640    2643       2
    2637    2640       2    2637    2655       2    2634    2637       5    2631
    2634       5    2631    2658       2    2628    2631       2    2625    2628
       2    2622    2625       2    2622    2661       2    2619    2622       6
    2595    2598       2    2589    2592       2    2583    2586       7    2583
    2589       8    2583    2619       9    2577    2580       7    2577    2619
       9    2574    2577       8    2574    2589       2    2571    2574       2
    2568    2571       2    2565    2568       2    2565    2592       2    2562
    2565       5    2559    2562       5    2559    2595       2    2556    2559
       2    2553    2556       2    2550    2553       2    2550    2598       2
    2544    2547       7    2544    2550       8    2541    2598       8    2538
    2541       7    2487    2490      11    2487    2493       2    2481    2484
      11    2481    2487       2    2478    2481       2    2475    2478       2
    2472    2475       2    2472    2493       2    2469    2472      12    2466
    2469      14    2463    2466      16    2457    2460       7    2457    2463
      18    2454    2457       8    2454    2496       2    2451    2454       2
    2448    2541       9    2448    2544       9    2445    2448       6    2445
    2451       2    2442    2445       2    2439    2442       2    2439    2496
       2    2436    2439       6    2412    2415       2    2406    2409       2
    2400    2403       7    2400    2406       8    2400    2436       9    2394
    2397       7    2394    2436       9    2391    2394       8    2391    2406
       2    2388    2391       2    2385    2388       2    2382    2385       2
    2382    2409       2    2379    2382       5    2376    2379       5    2376
    2412       2    2373    2376       2    2370    2373       2    2367    2370
       2    2367    2415       2    2361    2364       7    2361    2367       8
    2358    2415       8    2355    2358       7    2325    2328       2    2319
    2322       2    2316    2358       9    2316    2361       9    2313    2316
       6    2313    2319       2    2310    2313       2    2307    2310       2
    2304    2307       2    2304    2322       2    2301    2304       5    2298
    2301       5    2298    2325       2    2295    2298       2    2292    2295
       2    2289    2292       2    2289    2328       2    2286    2289       6
    2262    2265       2    2256    2259       2    2250    2253       7    2250
    2256       8    2250    2286       9    2244    2247       7    2244    2286
       9    2241    2244       8    2241    2256       2    2238    2241       2
    2235    2238       2    2232    2235       2    2232    2259       2    2229
    2232       5    2226    2229       5    2226    2262       2    2223    2226
       2    2220    2223       2    2217    2220       2    2217    2265       2
    2211    2214       7    2211    2217       8    2208    2265       8    2205
    2208       7    2175    2178       2    2169    2172       2    2166    2208
       9    2166    2211       9    2163    2166       6    2163    2169       2
    2160    2163       2    2157    2160       2    2154    2157       2    2154
    2172       2    2151    2154       5    2148    2151       5    2148    2175
       2    2145    2148       2    2142    2145       2    2139    2142       2
    2139    2178       2    2136    2139       6    2112    2115       2    2106
    2109       2    2100    2103       7    2100    2106       8    2100    2136
       9    2094    2097       7    2094    2136       9    2091    2094       8
    2091    2106       2    2088    2091       2    2085    2088       2    2082
    2085       2    2082    2109       2    2079    2082       5    2076    2079
       5    2076    2112       2    2073    2076       2    2070    2073       2
    2067    2070       2    2067    2115       2    2061    2064       7    2061
    2067       8    2058    2115       8    2055    2058       7    2025    2028
       2    2019    2022       2    2016    2058       9    2016    2061       9
    2013    2016       6    2013    2019       2    2010    2013       2    2007
    2010       2    2004    2007       2    2004    2022       2    2001    2004
       5    1998    2001       5    1998    2025       2    1995    1998       2
    1992    1995       2    1989    1992       2    1989    2028       2    1986
    1989       6    1962    1965       2    1956    1959       2    1950    1953
       7    1950    1956       8    1950    1986       9    1944    1947       7
    1944    1986       9    1941    1944       8    1941    1956       2    1938
    1941       2    1935    1938       2    1932    1935       2    1932    1959
       2    1929    1932       5    1926    1929       5    1926    1962       2
    1923    1926       2    1920    1923       2    1917    1920       2    1917
    1965       2    1911    1914       7    1911    1917       8    1908    1965
       8    1905    1908       7    1875    1878       2    1869    1872       2
    1866    1908       9    1866    1911       9    1863    1866       6    1863
    1869       2    1860    1863       2    1857    1860       2    1854    1857
       2    1854    1872       2    1851    1854       5    1848    1851       5
    1848    1875       2    1845    1848       2    1842    1845       2    1839
    1842       2    1839    1878       2    1836    1839       6    1812    1815
       2    1806    1809       2    1800    1803       7    1800    1806       8
    1800    1836       9    1794    1797       7    1794    1836       9    1791
    1794       8    1791    1806       2    1788    1791       2    1785    1788
       2    1782    1785       2    1782    1809       2    1779    1782       5
    1776    1779       5    1776    1812       2    1773    1776       2    1770
    1773       2    1767    1770       2    1767    1815       2    1761    1764
       7    1761    1767       8    1758    1815       8    1755    1758       7
    1725    1728       2    1719    1722       2    1716    1758       9    1716
    1761       9    1713    1716       6    1713    1719       2    1710    1713
       2    1707    1710       2    1704    1707       2    1704    1722       2
    1701    1704       5    1698    1701       5    1698    1725       2    1695
    1698       2    1692    1695       2    1689    1692       2    1689    1728
       2    1686    1689       6    1662    1665       2    1656    1659       2
    1650    1653       7    1650    1656       8    1650    1686       9    1644
    1647       7    1644    1686       9    1641    1644       8    1641    1656
       2    1638    1641       2    1635    1638       2    1632    1635       2
    1632    1659       2    1629    1632       5    1626    1629       5    1626
    1662       2    1623    1626       2    1620    1623       2    1617    1620
       2    1617    1665       2    1611    1614       7    1611    1617       8
    1608    1665       8    1605    1608       7    1554    1557      11    1554
    1560       2    1548    1551      11    1548    1554       2    1545    1548
       2    1542    1545       2    1539    1542       2    1539    1560       2
    1536    1539      12    1533    1536      14    1530    1533      16    1524
    1527       7    1524    1530      18    1521    1524       8    1521    1563
       2    1518    1521       2    1515    1608       9    1515    1611       9
    1512    1515       6    1512    1518       2    1509    1512       2    1506
    1509       2    1506    1563       2    1503    1506       6    1479    1482
       2    1473    1476       2    1467    1470       7    1467    1473       8
    1467    1503       9    1461    1464       7    1461    1503       9    1458
    1461       8    1458    1473       2    1455    1458       2    1452    1455
       2    1449    1452       2    1449    1476       2    1446    1449       5
    1443    1446       5    1443    1479       2    1440    1443       2    1437
    1440       2    1434    1437       2    1434    1482       2    1428    1431
       7    1428    1434       8    1425    1482       8    1422    1425       7
    1386    1389       2    1380    1383       2    1377    1425       9    1377
    1428       9    1374    1377       6    1374    1380       2    1371    1374
       2    1368    1371       2    1365    1368       2    1365    1383       2
    1362    1365       5    1359    1362       5    1359    1386       2    1356
    1359       2    1353    1356       2    1350    1353       2    1350    1389
       2    1347    1350       4    4005    4008       2    3999    4002       2
    3993    3996       4    3993    3999       2    3990    3993       2    3987
    3990       2    3984    3987       2    3984    4002       2    3981    3984
       5    3978    3981       5    3978    4005       2    3975    3978       2
    3972    3975       2    3969    3972       2    3969    4008       2    3966
    3969       6    3942    3945       2    3936    3939       2    3930    3933
       7    3930    3936       8    3930    3966       9    3924    3927       7
    3924    3966       9    3921    3924       8    3921    3936       2    3918
    3921       2    3915    3918       2    3912    3915       2    3912    3939
       2    3909    3912       5    3906    3909       5    3906    3942       2
    3903    3906       2    3900    3903       2    3897    3900       2    3897
    3945       2    3891    3894       7    3891    3897       8    3888    3945
       8    3885    3888       7    3834    3837      11    3834    3840       2
    3828    3831      11    3828    3834       2    3825    3828       2    3822
    3825       2    3819    3822       2    3819    3840       2    3816    3819
      12    3813    3816      14    3810    3813      16    3804    3807       7
    3804    3810      18    3801    3804       8    3801    3843       2    3798
    3801       2    3795    3888       9    3795    3891       9    3792    3795
       6    3792    3798       2    3789    3792       2    3786    3789       2
    3786    3843       2    3783    3786       6    3759    3762       2    3753
    3756       2    3747    3750       7    3747    3753       8    3747    3783
       9    3741    3744       7    3741    3783       9    3738    3741       8
    3738    3753       2    3735    3738       2    3732    3735       2    3729
    3732       2    3729    3756       2    3726    3729       5    3723    3726
       5    3723    3759       2    3720    3723       2    3717    3720       2
    3714    3717       2    3714    3762       2    3708    3711       7    3708
    3714       8    3705    3762       8    3702    3705       7    3672    3675
       2    3666    3669       2    3663    3705       9    3663    3708       9
    3660    3663       6    3660    3666       2    3657    3660       2    3654
    3657       2    3651    3654       2    3651    3669       2    3648    3651
       5    3645    3648       5    3645    3672       2    3642    3645       2
    3639    3642       2    3636    3639       2    3636    3675       2    3633
    3636       6    3609    3612       2    3603    3606       2    3597    3600
       7    3597    3603       8    3597    3633       9    3591    3594       7
    3591    3633       9    3588    3591       8    3588    3603       2    3585
    3588       2    3582    3585       2    3579    3582       2    3579    3606
       2    3576    3579       5    3573    3576       5    3573    3609       2
    3570    3573       2    3567    3570       2    3564    3567       2    3564
    3612       2    3558    3561       7    3558    3564       8    3555    3612
       8    3552    3555       7    3522    3525       2    3516    3519       2
    3513    3555       9    3513    3558       9    3510    3513       6    3510
    3516       2    3507    3510       2    3504    3507       2    3501    3504
       2    3501    3519       2    3498    3501       5    3495    3498       5
    3495    3522       2    3492    3495       2    3489    3492       2    3486
    3489       2    3486    3525       2    3483    3486       6    3459    3462
       2    3453    3456       2    3447    3450       7    3447    3453       8
    3447    3483       9    3441    3444       7    3441    3483       9    3438
    3441       8    3438    3453       2    3435    3438       2    3432    3435
       2    3429    3432       2    3429    3456       2    3426    3429       5
    3423    3426       5    3423    3459       2    3420    3423       2    3417
    3420       2    3414    3417       2    3414    3462       2    3408    3411
       7    3408    3414       8    3405    3462       8    3402    3405       7
    3372    3375       2    3366    3369       2    3363    3405       9    3363
    3408       9    3360    3363       6    3360    3366       2    3357    3360
       2    3354    3357       2    3351    3354       2    3351    3369       2
    3348    3351       5    3345    3348       5    3345    3372       2    3342
    3345       2    3339    3342       2    3336    3339       2    3336    3375
       2    3333    3336       6    3309    3312       2    3303    3306       2
    3297    3300       7    3297    3303       8    3297    3333       9    3291
    3294       7    3291    3333       9    3288    3291       8    3288    3303
       2    3285    3288       2    3282    3285       2    3279    3282       2
    3279    3306       2    3276    3279       5    3273    3276       5    3273
    3309       2    3270    3273       2    3267    3270       2    3264    3267
       2    3264    3312       2    3258    3261       7    3258    3264       8
    3255    3312       8    3252    3255       7    3222    3225       2    3216
    3219       2    3213    3255       9    3213    3258       9    3210    3213
       6    3210    3216       2    3207    3210       2    3204    3207       2
    3201    3204       2    3201    3219       2    3198    3201       5    3195
    3198       5    3195    3222       2    3192    3195       2    3189    3192
       2    3186    3189       2    3186    3225       2    3183    3186       6
    3159    3162       2    3153    3156       2    3147    3150       7    3147
    3153       8    3147    3183       9    3141    3144       7    3141    3183
       9    3138    3141       8    3138    3153       2    3135    3138       2
    3132    3135       2    3129    3132       2    3129    3156       2    3126
    3129       5    3123    3126       5    3123    3159       2    3120    3123
       2    3117    3120       2    3114    3117       2    3114    3162       2
    3108    3111       7    3108    3114       8    3105    3162       8    3102
    3105       7    3072    3075       2    3066    3069       2    3063    3105
       9    3063    3108       9    3060    3063       6    3060    3066       2
    3057    3060       2    3054    3057       2    3051    3054       2    3051
    3069       2    3048    3051       5    3045    3048       5    3045    3072
       2    3042    3045       2    3039    3042       2    3036    3039       2
    3036    3075       2    3033    3036       6    3009    3012       2    3003
    3006       2    2997    3000       7    2997    3003       8    2997    3033
       9    2991    2994       7    2991    3033       9    2988    2991       8
    2988    3003       2    2985    2988       2    2982    2985       2    2979
    2982       2    2979    3006       2    2976    2979       5    2973    2976
       5    2973    3009       2    2970    2973       2    2967    2970       2
    2964    2967       2    2964    3012       2    2958    2961       7    2958
    2964       8    2955    3012       8    2952    2955       7    2901    2904
      11    2901    2907       2    2895    2898      11    2895    2901       2
    2892    2895       2    2889    2892       2    2886    2889       2    2886
    2907       2    2883    2886      12    2880    2883      14    2877    2880
      16    2871    2874       7    2871    2877      18    2868    2871       8
    2868    2910       2    2865    2868       2    2862    2955       9    2862
    2958       9    2859    2862       6    2859    2865       2    2856    2859
       2    2853    2856       2    2853    2910       2    2850    2853       6
    2826    2829       2    2820    2823       2    2814    2817       7    2814
    2820       8    2814    2850       9    2808    2811       7    2808    2850
       9    2805    2808       8    2805    2820       2    2802    2805       2
    2799    2802       2    2796    2799       2    2796    2823       2    2793
    2796       5    2790    2793       5    2790    2826       2    2787    2790
       2    2784    2787       2    2781    2784       2    2781    2829       2
    2775    2778       7    2775    2781       8    2772    2829       8    2769
    2772       7    2733    2736       2    2727    2730       2    2724    2772
       9    2724    2775       9    2721    2724       6    2721    2727       2
    2718    2721       2    2715    2718       2    2712    2715       2    2712
    2730       2    2709    2712       5    2706    2709       5    2706    2733
       2    2703    2706       2    2700    2703       2    2697    2700       2
    2697    2736       2    2694    2697       4    5352    5355       2    5346
    5349       2    5340    5343       4    5340    5346       2    5337    5340
       2    5334    5337       2    5331    5334       2    5331    5349       2
    5328    5331       5    5325    5328       5    5325    5352       2    5322
    5325       2    5319    5322       2    5316    5319       2    5316    5355
       2    5313    5316       6    5289    5292       2    5283    5286       2
    5277    5280       7    5277    5283       8    5277    5313       9    5271
    5274       7    5271    5313       9    5268    5271       8    5268    5283
       2    5265    5268       2    5262    5265       2    5259    5262       2
    5259    5286       2    5256    5259       5    5253    5256       5    5253
    5289       2    5250    5253       2    5247    5250       2    5244    5247
       2    5244    5292       2    5238    5241       7    5238    5244       8
    5235    5292       8    5232    5235       7    5181    5184      11    5181
    5187       2    5175    5178      11    5175    5181       2    5172    5175
       2    5169    5172       2    5166    5169       2    5166    5187       2
    5163    5166      12    5160    5163      14    5157    5160      16    5151
    5154       7    5151    5157      18    5148    5151       8    5148    5190
       2    5145    5148       2    5142    5235       9    5142    5238       9
    5139    5142       6    5139    5145       2    5136    5139       2    5133
    5136       2    5133    5190       2    5130    5133       6    5106    5109
       2    5100    5103       2    5094    5097       7    5094    5100       8
    5094    5130       9    5088    5091       7    5088    5130       9    5085
    5088       8    5085    5100       2    5082    5085       2    5079    5082
       2    5076    5079       2    5076    5103       2    5073    5076       5
    5070    5073       5    5070    5106       2    5067    5070       2    5064
    5067       2    5061    5064       2    5061    5109       2    5055    5058
       7    5055    5061       8    5052    5109       8    5049    5052       7
    5019    5022       2    5013    5016       2    5010    5052       9    5010
    5055       9    5007    5010       6    5007    5013       2    5004    5007
       2    5001    5004       2    4998    5001       2    4998    5016       2
    4995    4998       5    4992    4995       5    4992    5019       2    4989
    4992       2    4986    4989       2    4983    4986       2    4983    5022
       2    4980    4983       6    4956    4959       2    4950    4953       2
    4944    4947       7    4944    4950       8    4944    4980       9    4938
    4941       7    4938    4980       9    4935    4938       8    4935    4950
       2    4932    4935       2    4929    4932       2    4926    4929       2
    4926    4953       2    4923    4926       5    4920    4923       5    4920
    4956       2    4917    4920       2    4914    4917       2    4911    4914
       2    4911    4959       2    4905    4908       7    4905    4911       8
    4902    4959       8    4899    4902       7    4869    4872       2    4863
    4866       2    4860    4902       9    4860    4905       9    4857    4860
       6    4857    4863       2    4854    4857       2    4851    4854       2
    4848    4851       2    4848    4866       2    4845    4848       5    4842
    4845       5    4842    4869       2    4839    4842       2    4836    4839
       2    4833    4836       2    4833    4872       2    4830    4833       6
    4806    4809       2    4800    4803       2    4794    4797       7    4794
    4800       8    4794    4830       9    4788    4791       7    4788    4830
       9    4785    4788       8    4785    4800       2    4782    4785       2
    4779    4782       2    4776    4779       2    4776    4803       2    4773
    4776       5    4770    4773       5    4770    4806       2    4767    4770
       2    4764    4767       2    4761    4764       2    4761    4809       2
    4755    4758       7    4755    4761       8    4752    4809       8    4749
    4752       7    4719    4722       2    4713    4716       2    4710    4752
       9    4710    4755       9    4707    4710       6    4707    4713       2
    4704    4707       2    4701    4704       2    4698    4701       2    4698
    4716       2    4695    4698       5    4692    4695       5    4692    4719
       2    4689    4692       2    4686    4689       2    4683    4686       2
    4683    4722       2    4680    4683       6    4656    4659       2    4650
    4653       2    4644    4647       7    4644    4650       8    4644    4680
       9    4638    4641       7    4638    4680       9    4635    4638       8
    4635    4650       2    4632    4635       2    4629    4632       2    4626
    4629       2    4626    4653       2    4623    4626       5    4620    4623
       5    4620    4656       2    4617    4620       2    4614    4617       2
    4611    4614       2    4611    4659       2    4605    4608       7    4605
    4611       8    4602    4659       8    4599    4602       7    4569    4572
       2    4563    4566       2    4560    4602       9    4560    4605       9
    4557    4560       6    4557    4563       2    4554    4557       2    4551
    4554       2    4548    4551       2    4548    4566       2    4545    4548
       5    4542    4545       5    4542    4569       2    4539    4542       2
    4536    4539       2    4533    4536       2    4533    4572       2    4530
    4533       6    4506    4509       2    4500    4503       2    4494    4497
       7    4494    4500       8    4494    4530       9    4488    4491       7
    4488    4530       9    4485    4488       8    4485    4500       2    4482
    4485       2    4479    4482       2    4476    4479       2    4476    4503
       2    4473    4476       5    4470    4473       5    4470    4506       2
    4467    4470       2    4464    4467       2    4461    4464       2    4461
    4509       2    4455    4458       7    4455    4461       8    4452    4509
       8    4449    4452       7    4419    4422       2    4413    4416       2
    4410    4452       9    4410    4455       9    4407    4410       6    4407
    4413       2    4404    4407       2    4401    4404       2    4398    4401
       2    4398    4416       2    4395    4398       5    4392    4395       5
    4392    4419       2    4389    4392       2    4386    4389       2    4383
    4386       2    4383    4422       2    4380    4383       6    4356    4359
       2    4350    4353       2    4344    4347       7    4344    4350       8
    4344    4380       9    4338    4341       7    4338    4380       9    4335
    4338       8    4335    4350       2    4332    4335       2    4329    4332
       2    4326    4329       2    4326    4353       2    4323    4326       5
    4320    4323       5    4320    4356       2    4317    4320       2    4314
    4317       2    4311    4314       2    4311    4359       2    4305    4308
       7    4305    4311       8    4302    4359       8    4299    4302       7
    4248    4251      11    4248    4254       2    4242    4245      11    4242
    4248       2    4239    4242       2    4236    4239       2    4233    4236
       2    4233    4254       2    4230    4233      12    4227    4230      14
    4224    4227      16    4218    4221       7    4218    4224      18    4215
    4218       8    4215    4257       2    4212    4215       2    4209    4302
       9    4209    4305       9    4206    4209       6    4206    4212       2
    4203    4206       2    4200    4203       2    4200    4257       2    4197
    4200       6    4173    4176       2    4167    4170       2    4161    4164
       7    4161    4167       8    4161    4197       9    4155    4158       7
    4155    4197       9    4152    4155       8    4152    4167       2    4149
    4152       2    4146    4149       2    4143    4146       2    4143    4170
       2    4140    4143       5    4137    4140       5    4137    4173       2
    4134    4137       2    4131    4134       2    4128    4131       2    4128
    4176       2    4122    4125       7    4122    4128       8    4119    4176
       8    4116    4119       7    4080    4083       2    4074    4077       2
    4071    4119       9    4071    4122       9    4068    4071       6    4068
    4074       2    4065    4068       2    4062    4065       2    4059    4062
       2    4059    4077       2    4056    4059       5    4053    4056       5
    4053    4080       2    4050    4053       2    4047    4050       2    4044
    4047       2    4044    4083       2    4041    4044       4    6699    6702
       2    6693    6696       2    6687    6690       4    6687    6693       2
    6684    6687       2    6681    6684       2    6678    6681       2    6678
    6696       2    6675    6678       5    6672    6675       5    6672    6699
       2    6669    6672       2    6666    6669       2    6663    6666       2
    6663    6702       2    6660    6663       6    6636    6639       2    6630
    6633       2    6624    6627       7    6624    6630       8    6624    6660
       9    6618    6621       7    6618    6660       9    6615    6618       8
    6615    6630       2    6612    6615       2    6609    6612       2    6606
    6609       2    6606    6633       2    6603    6606       5    6600    6603
       5    6600    6636       2    6597    6600       2    6594    6597       2
    6591    6594       2    6591    6639       2    6585    6588       7    6585
    6591       8    6582    6639       8    6579    6582       7    6528    6531
      11    6528    6534       2    6522    6525      11    6522    6528       2
    6519    6522       2    6516    6519       2    6513    6516       2    6513
    6534       2    6510    6513      12    6507    6510      14    6504    6507
      16    6498    6501       7    6498    6504      18    6495    6498       8
    6495    6537       2    6492    6495       2    6489    6582       9    6489
    6585       9    6486    6489       6    6486    6492       2    6483    6486
       2    6480    6483       2    6480    6537       2    6477    6480       6
    6453    6456       2    6447    6450       2    6441    6444       7    6441
    6447       8    6441    6477       9    6435    6438       7    6435    6477
       9    6432    6435       8    6432    6447       2    6429    6432       2
    6426    6429       2    6423    6426       2    6423    6450       2    6420
    6423       5    6417    6420       5    6417    6453       2    6414    6417
       2    6411    6414       2    6408    6411       2    6408    6456       2
    6402    6405       7    6402    6408       8    6399    6456       8    6396
    6399       7    6366    6369       2    6360    6363       2    6357    6399
       9    6357    6402       9    6354    6357       6    6354    6360       2
    6351    6354       2    6348    6351       2    6345    6348       2    6345
    6363       2    6342    6345       5    6339    6342       5    6339    6366
       2    6336    6339       2    6333    6336       2    6330    6333       2
    6330    6369       2    6327    6330       6    6303    6306       2    6297
    6300       2    6291    6294       7    6291    6297       8    6291    6327
       9    6285    6288       7    6285    6327       9    6282    6285       8
    6282    6297       2    6279    6282       2    6276    6279       2    6273
    6276       2    6273    6300       2    6270    6273       5    6267    6270
       5    6267    6303       2    6264    6267       2    6261    6264       2
    6258    6261       2    6258    6306       2    6252    6255       7    6252
    6258       8    6249    6306       8    6246    6249       7    6216    6219
       2    6210    6213       2    6207    6249       9    6207    6252       9
    6204    6207       6    6204    6210       2    6201    6204       2    6198
    6201       2    6195    6198       2    6195    6213       2    6192    6195
       5    6189    6192       5    6189    6216       2    6186    6189       2
    6183    6186       2    6180    6183       2    6180    6219       2    6177
    6180       6    6153    6156       2    6147    6150       2    6141    6144
       7    6141    6147       8    6141    6177       9    6135    6138       7
    6135    6177       9    6132    6135       8    6132    6147       2    6129
    6132       2    6126    6129       2    6123    6126       2    6123    6150
       2    6120    6123       5    6117    6120       5    6117    6153       2
    6114    6117       2    6111    6114       2    6108    6111       2    6108
    6156       2    6102    6105       7    6102    6108       8    6099    6156
       8    6096    6099       7    6066    6069       2    6060    6063       2
    6057    6099       9    6057    6102       9    6054    6057       6    6054
    6060       2    6051    6054       2    6048    6051       2    6045    6048
       2    6045    6063       2    6042    6045       5    6039    6042       5
    6039    6066       2    6036    6039       2    6033    6036       2    6030
    6033       2    6030    6069       2    6027    6030       6    6003    6006
       2    5997    6000       2    5991    5994       7    5991    5997       8
    5991    6027       9    5985    5988       7    5985    6027       9    5982
    5985       8    5982    5997       2    5979    5982       2    5976    5979
       2    5973    5976       2    5973    6000       2    5970    5973       5
    5967    5970       5    5967    6003       2    5964    5967       2    5961
    5964       2    5958    5961       2    5958    6006       2    5952    5955
       7    5952    5958       8    5949    6006       8    5946    5949       7
    5916    5919       2    5910    5913       2    5907    5949       9    5907
    5952       9    5904    5907       6    5904    5910       2    5901    5904
       2    5898    5901       2    5895    5898       2    5895    5913       2
    5892    5895       5    5889    5892       5    5889    5916       2    5886
    5889       2    5883    5886       2    5880    5883       2    5880    5919
       2    5877    5880       6    5853    5856       2    5847    5850       2
    5841    5844       7    5841    5847       8    5841    5877       9    5835
    5838       7    5835    5877       9    5832    5835       8    5832    5847
       2    5829    5832       2    5826    5829       2    5823    5826       2
    5823    5850       2    5820    5823       5    5817    5820       5    5817
    5853       2    5814    5817       2    5811    5814       2    5808    5811
       2    5808    5856       2    5802    5805       7    5802    5808       8
    5799    5856       8    5796    5799       7    5766    5769       2    5760
    5763       2    5757    5799       9    5757    5802       9    5754    5757
       6    5754    5760       2    5751    5754       2    5748    5751       2
    5745    5748       2    5745    5763       2    5742    5745       5    5739
    5742       5    5739    5766       2    5736    5739       2    5733    5736
       2    5730    5733       2    5730    5769       2    5727    5730       6
    5703    5706       2    5697    5700       2    5691    5694       7    5691
    5697       8    5691    5727       9    5685    5688       7    5685    5727
       9    5682    5685       8    5682    5697       2    5679    5682       2
    5676    5679       2    5673    5676       2    5673    5700       2    5670
    5673       5    5667    5670       5    5667    5703       2    5664    5667
       2    5661    5664       2    5658    5661       2    5658    5706       2
    5652    5655       7    5652    5658       8    5649    5706       8    5646
    5649       7    5595    5598      11    5595    5601       2    5589    5592
      11    5589    5595       2    5586    5589       2    5583    5586       2
    5580    5583       2    5580    5601       2    5577    5580      12    5574
    5577      14    5571    5574      16    5565    5568       7    5565    5571
      18    5562    5565       8    5562    5604       2    5559    5562       2
    5556    5649       9    5556    5652       9    5553    5556       6    5553
    5559       2    5550    5553       2    5547    5550       2    5547    5604
       2    5544    5547       6    5520    5523       2    5514    5517       2
    5508    5511       7    5508    5514       8    5508    5544       9    5502
    5505       7    5502    5544       9    5499    5502       8    5499    5514
       2    5496    5499       2    5493    5496       2    5490    5493       2
    5490    5517       2    5487    5490       5    5484    5487       5    5484
    5520       2    5481    5484       2    5478    5481       2    5475    5478
       2    5475    5523       2    5469    5472       7    5469    5475       8
    5466    5523       8    5463    5466       7    5427    5430       2    5421
    5424       2    5418    5466       9    5418    5469       9    5415    5418
       6    5415    5421       2    5412    5415       2    5409    5412       2
    5406    5409       2    5406    5424       2    5403    5406       5    5400
    5403       5    5400    5427       2    5397    5400       2    5394    5397
       2    5391    5394       2    5391    5430       2    5388    5391       4
    8046    8049       2    8040    8043       2    8034    8037       4    8034
    8040       2    8031    8034       2    8028    8031       2    8025    8028
       2    8025    8043       2    8022    8025       5    8019    8022       5
    8019    8046       2    8016    8019       2    8013    8016       2    8010
    8013       2    8010    8049       2    8007    8010       6    7983    7986
       2    7977    7980       2    7971    7974       7    7971    7977       8
    7971    8007       9    7965    7968       7    7965    8007       9    7962
    7965       8    7962    7977       2    7959    7962       2    7956    7959
       2    7953    7956       2    7953    7980       2    7950    7953       5
    7947    7950       5    7947    7983       2    7944    7947       2    7941
    7944       2    7938    7941       2    7938    7986       2    7932    7935
       7    7932    7938       8    7929    7986       8    7926    7929       7
    7875    7878      11    7875    7881       2    7869    7872      11    7869
    7875       2    7866    7869       2    7863    7866       2    7860    7863
       2    7860    7881       2    7857    7860      12    7854    7857      14
    7851    7854      16    7845    7848       7    7845    7851      18    7842
    7845       8    7842    7884       2    7839    7842       2    7836    7929
       9    7836    7932       9    7833    7836       6    7833    7839       2
    7830    7833       2    7827    7830       2    7827    7884       2    7824
    7827       6    7800    7803       2    7794    7797       2    7788    7791
       7    7788    7794       8    7788    7824       9    7782    7785       7
    7782    7824       9    7779    7782       8    7779    7794       2    7776
    7779       2    7773    7776       2    7770    7773       2    7770    7797
       2    7767    7770       5    7764    7767       5    7764    7800       2
    7761    7764       2    7758    7761       2    7755    7758       2    7755
    7803       2    7749    7752       7    7749    7755       8    7746    7803
       8    7743    7746       7    7713    7716       2    7707    7710       2
    7704    7746       9    7704    7749       9    7701    7704       6    7701
    7707       2    7698    7701       2    7695    7698       2    7692    7695
       2    7692    7710       2    7689    7692       5    7686    7689       5
    7686    7713       2    7683    7686       2    7680    7683       2    7677
    7680       2    7677    7716       2    7674    7677       6    7650    7653
       2    7644    7647       2    7638    7641       7    7638    7644       8
    7638    7674       9    7632    7635       7    7632    7674       9    7629
    7632       8    7629    7644       2    7626    7629       2    7623    7626
       2    7620    7623       2    7620    7647       2    7617    7620       5
    7614    7617       5    7614    7650       2    7611    7614       2    7608
    7611       2    7605    7608       2    7605    7653       2    7599    7602
       7    7599    7605       8    7596    7653       8    7593    7596       7
    7563    7566       2    7557    7560       2    7554    7596       9    7554
    7599       9    7551    7554       6    7551    7557       2    7548    7551
       2    7545    7548       2    7542    7545       2    7542    7560       2
    7539    7542       5    7536    7539       5    7536    7563       2    7533
    7536       2    7530    7533       2    7527    7530       2    7527    7566
       2    7524    7527       6    7500    7503       2    7494    7497       2
    7488    7491       7    7488    7494       8    7488    7524       9    7482
    7485       7    7482    7524       9    7479    7482       8    7479    7494
       2    7476    7479       2    7473    7476       2    7470    7473       2
    7470    7497       2    7467    7470       5    7464    7467       5    7464
    7500       2    7461    7464       2    7458    7461       2    7455    7458
       2    7455    7503       2    7449    7452       7    7449    7455       8
    7446    7503       8    7443    7446       7    7413    7416       2    7407
    7410       2    7404    7446       9    7404    7449       9    7401    7404
       6    7401    7407       2    7398    7401       2    7395    7398       2
    7392    7395       2    7392    7410       2    7389    7392       5    7386
    7389       5    7386    7413       2    7383    7386       2    7380    7383
       2    7377    7380       2    7377    7416       2    7374    7377       6
    7350    7353       2    7344    7347       2    7338    7341       7    7338
    7344       8    7338    7374       9    7332    7335       7    7332    7374
       9    7329    7332       8    7329    7344       2    7326    7329       2
    7323    7326       2    7320    7323       2    7320    7347       2    7317
    7320       5    7314    7317       5    7314    7350       2    7311    7314
       2    7308    7311       2    7305    7308       2    7305    7353       2
    7299    7302       7    7299    7305       8    7296    7353       8    7293
    7296       7    7263    7266       2    7257    7260       2    7254    7296
       9    7254    7299       9    7251    7254       6    7251    7257       2
    7248    7251       2    7245    7248       2    7242    7245       2    7242
    7260       2    7239    7242       5    7236    7239       5    7236    7263
       2    7233    7236       2    7230    7233       2    7227    7230       2
    7227    7266       2    7224    7227       6    7200    7203       2    7194
    7197       2    7188    7191       7    7188    7194       8    7188    7224
       9    7182    7185       7    7182    7224       9    7179    7182       8
    7179    7194       2    7176    7179       2    7173    7176       2    7170
    7173       2    7170    7197       2    7167    7170       5    7164    7167
       5    7164    7200       2    7161    7164       2    7158    7161       2
    7155    7158       2    7155    7203       2    7149    7152       7    7149
    7155       8    7146    7203       8    7143    7146       7    7113    7116
       2    7107    7110       2    7104    7146       9    7104    7149       9
    7101    7104       6    7101    7107       2    7098    7101       2    7095
    7098       2    7092    7095       2    7092    7110       2    7089    7092
       5    7086    7089       5    7086    7113       2    7083    7086       2
    7080    7083       2    7077    7080       2    7077    7116       2    7074
    7077       6    7050    7053       2    7044    7047       2    7038    7041
       7    7038    7044       8    7038    7074       9    7032    7035       7
    7032    7074       9    7029    7032       8    7029    7044       2    7026
    7029       2    7023    7026       2    7020    7023       2    7020    7047
       2    7017    7020       5    7014    7017       5    7014    7050       2
    7011    7014       2    7008    7011       2    7005    7008       2    7005
    7053       2    6999    7002       7    6999    7005       8    6996    7053
       8    6993    6996       7    6942    6945      11    6942    6948       2
    6936    6939      11    6936    6942       2    6933    6936       2    6930
    6933       2    6927    6930       2    6927    6948       2    6924    6927
      12    6921    6924      14    6918    6921      16    6912    6915       7
    6912    6918      18    6909    6912       8    6909    6951       2    6906
    6909       2    6903    6996       9    6903    6999       9    6900    6903
       6    6900    6906       2    6897    6900       2    6894    6897       2
    6894    6951       2    6891    6894       6    6867    6870       2    6861
    6864       2    6855    6858       7    6855    6861       8    6855    6891
       9    6849    6852       7    6849    6891       9    6846    6849       8
    6846    6861       2    6843    6846       2    6840    6843       2    6837
    6840       2    6837    6864       2    6834    6837       5    6831    6834
       5    6831    6867       2    6828    6831       2    6825    6828       2
    6822    6825       2    6822    6870       2    6816    6819       7    6816
    6822       8    6813    6870       8    6810    6813       7    6774    6777
       2    6768    6771       2    6765    6813       9    6765    6816       9
    6762    6765       6    6762    6768       2    6759    6762       2    6756
    6759       2    6753    6756       2    6753    6771       2    6750    6753
       5    6747    6750       5    6747    6774       2    6744    6747       2
    6741    6744       2    6738    6741       2    6738    6777       2    6735
    6738       4
%FLAG ANGLES_INC_HYDROGEN                                                       
%FORMAT(10I8)                                                                   
    1329    1302    1332       1    1314    1311    1341       2    1311    1314
    1344       2    1308    1305    1335       2    1305    1308    1338       2
    1299    1296    1326       2    1299    1302    1329       4    1299    1302
    1332       4    1299    1305    1335       2    1296    1293    1323       2
    1293    1296    1326       2    1290    1293    1323       2    1290    1308
    1338       2    1284    1281    1320       2    1284    1311    1341       2
    1281    1278    1317       2    1278    1281    1320       2    1275    1278
    1317       2    1275    1314    1344       2    1251    1248    1269       2
    1242    1245    1266       2    1227    1224    1263       2    1224    1221
    1260       2    1221    1224    1263       2    1218    1221    1260       2
    1218    1245    1266       2    1212    1209    1257       2    1212    1248
    1269       2    1209    1206    1254       2    1206    1209    1257       2
    1203    1206    1254       2    1167    1122    1170      15    1161    1119
    1164      16    1140    1143    1182      18    1140    1146    1185       2
    1134    1131    1176       2    1134    1137    1179      18    1131    1128
    1173       2    1128    1131    1176       2    1125    1122    1167      19
    1125    1122    1170      19    1125    1128    1173       2    1125    1146
    1185       2    1122    1119    1161      20    1122    1119    1164      20
    1119    1116    1158      22    1119    1122    1167      24    1119    1122
    1170      24    1116    1119    1161      26    1116    1119    1164      26
    1110    1116    1158      29    1107    1104    1155       2    1107    1149
    1188       2    1098    1095    1152       2    1098    1104    1155       2
    1092    1095    1152       2    1092    1149    1188       2    1068    1065
    1086       2    1059    1062    1083       2    1044    1041    1080       2
    1041    1038    1077       2    1038    1041    1080       2    1035    1038
    1077       2    1035    1062    1083       2    1029    1026    1074       2
    1029    1065    1086       2    1026    1023    1071       2    1023    1026
    1074       2    1020    1023    1071       2     981     978    1002       2
     978     981    1005       2     975     972     996       2     972     975
     999       2     966     963     993       2     966     972     996       2
     963     960     990       2     960     963     993       2     957     960
     990       2     957     975     999       2     951     948     987       2
     951     978    1002       2     948     945     984       2     945     948
     987       2     942     945     984       2     942     981    1005       2
     918     915     936       2     909     912     933       2     894     891
     930       2     891     888     927       2     888     891     930       2
     885     888     927       2     885     912     933       2     879     876
     924       2     879     915     936       2     876     873     921       2
     873     876     924       2     870     873     921       2     831     828
     852       2     828     831     855       2     825     822     846       2
     822     825     849       2     816     813     843       2     816     822
     846       2     813     810     840       2     810     813     843       2
     807     810     840       2     807     825     849       2     801     798
     837       2     801     828     852       2     798     795     834       2
     795     798     837       2     792     795     834       2     792     831
     855       2     768     765     786       2     759     762     783       2
     744     741     780       2     741     738     777       2     738     741
     780       2     735     738     777       2     735     762     783       2
     729     726     774       2     729     765     786       2     726     723
     771       2     723     726     774       2     720     723     771       2
     681     678     702       2     678     681     705       2     675     672
     696       2     672     675     699       2     666     663     693       2
     666     672     696       2     663     660     690       2     660     663
     693       2     657     660     690       2     657     675     699       2
     651     648     687       2     651     678     702       2     648     645
     684       2     645     648     687       2     642     645     684       2
     642     681     705       2     618     615     636       2     609     612
     633       2     594     591     630       2     591     588     627       2
     588     591     630       2     585     588     627       2     585     612
     633       2     579     576     624       2     579     615     636       2
     576     573     621       2     573     576     624       2     570     573
     621       2     531     528     552       2     528     531     555       2
     525     522     546       2     522     525     549       2     516     513
     543       2     516     522     546       2     513     510     540       2
     510     513     543       2     507     510     540       2     507     525
     549       2     501     498     537       2     501     528     552       2
     498     495     534       2     495     498     537       2     492     495
     534       2     492     531     555       2     468     465     486       2
     459     462     483       2     444     441     480       2     441     438
     477       2     438     441     480       2     435     438     477       2
     435     462     483       2     429     426     474       2     429     465
     486       2     426     423     471       2     423     426     474       2
     420     423     471       2     381     378     402       2     378     381
     405       2     375     372     396       2     372     375     399       2
     366     363     393       2     366     372     396       2     363     360
     390       2     360     363     393       2     357     360     390       2
     357     375     399       2     351     348     387       2     351     378
     402       2     348     345     384       2     345     348     387       2
     342     345     384       2     342     381     405       2     318     315
     336       2     309     312     333       2     294     291     330       2
     291     288     327       2     288     291     330       2     285     288
     327       2     285     312     333       2     279     276     324       2
     279     315     336       2     276     273     321       2     273     276
     324       2     270     273     321       2     234     189     237      15
     228     186     231      16     207     210     249      18     207     213
     252       2     201     198     243       2     201     204     246      18
     198     195     240       2     195     198     243       2     192     189
     234      19     192     189     237      19     192     195     240       2
     192     213     252       2     189     186     228      20     189     186
     231      20     186     183     225      22     186     189     234      24
     186     189     237      24     183     186     228      26     183     186
     231      26     177     183     225      29     174     171     222       2
     174     216     255       2     165     162     219       2     165     171
     222       2     159     162     219       2     159     216     255       2
     135     132     153       2     126     129     150       2     111     108
     147       2     108     105     144       2     105     108     147       2
     102     105     144       2     102     129     150       2      96      93
     141       2      96     132     153       2      93      90     138       2
      90      93     141       2      87      90     138       2      45       0
      48       1      42      39      69       2      39      42      72       2
      36      33      63       2      33      36      66       2      27      24
      60       2      27      33      63       2      24      21      57       2
      21      24      60       2      18      21      57       2      18      36
      66       2      12       9      54       2      12      39      69       2
       9       6      51       2       6       9      54       2       3       0
      45       4       3       0      48       4       3       6      51       2
       3      42      72       2    2676    2649    2679       1    2661    2658
    2688       2    2658    2661    2691       2    2655    2652    2682       2
    2652    2655    2685       2    2646    2643    2673       2    2646    2649
    2676       4    2646    2649    2679       4    2646    2652    2682       2
    2643    2640    2670       2    2640    2643    2673       2    2637    2640
    2670       2    2637    2655    2685       2    2631    2628    2667       2
    2631    2658    2688       2    2628    2625    2664       2    2625    2628
    2667       2    2622    2625    2664       2    2622    2661    2691       2
    2598    2595    2616       2    2589    2592    2613       2    2574    2571
    2610       2    2571    2568    2607       2    2568    2571    2610       2
    2565    2568    2607       2    2565    2592    2613       2    2559    2556
    2604       2    2559    2595    2616       2    2556    2553    2601       2
    2553    2556    2604       2    2550    2553    2601       2    2514    2469
    2517      15    2508    2466    2511      16    2487    2490    2529      18
    2487    2493    2532       2    2481    2478    2523       2    2481    2484
    2526      18    2478    2475    2520       2    2475    2478    2523       2
    2472    2469    2514      19    2472    2469    2517      19    2472    2475
    2520       2    2472    2493    2532       2    2469    2466    2508      20
    2469    2466    2511      20    2466    2463    2505      22    2466    2469
    2514      24    2466    2469    2517      24    2463    2466    2508      26
    2463    2466    2511      26    2457    2463    2505      29    2454    2451
    2502       2    2454    2496    2535       2    2445    2442    2499       2
    2445    2451    2502       2    2439    2442    2499       2    2439    2496
    2535       2    2415    2412    2433       2    2406    2409    2430       2
    2391    2388    2427       2    2388    2385    2424       2    2385    2388
    2427       2    2382    2385    2424       2    2382    2409    2430       2
    2376    2373    2421       2    2376    2412    2433       2    2373    2370
    2418       2    2370    2373    2421       2    2367    2370    2418       2
    2328    2325    2349       2    2325    2328    2352       2    2322    2319
    2343       2    2319    2322    2346       2    2313    2310    2340       2
    2313    2319    2343       2    2310    2307    2337       2    2307    2310
    2340       2    2304    2307    2337       2    2304    2322    2346       2
    2298    2295    2334       2    2298    2325    2349       2    2295    2292
    2331       2    2292    2295    2334       2    2289    2292    2331       2
    2289    2328    2352       2    2265    2262    2283       2    2256    2259
    2280       2    2241    2238    2277       2    2238    2235    2274       2
    2235    2238    2277       2    2232    2235    2274       2    2232    2259
    2280       2    2226    2223    2271       2    2226    2262    2283       2
    2223    2220    2268       2    2220    2223    2271       2    2217    2220
    2268       2    2178    2175    2199       2    2175    2178    2202       2
    2172    2169    2193       2    2169    2172    2196       2    2163    2160
    2190       2    2163    2169    2193       2    2160    2157    2187       2
    2157    2160    2190       2    2154    2157    2187       2    2154    2172
    2196       2    2148    2145    2184       2    2148    2175    2199       2
    2145    2142    2181       2    2142    2145    2184       2    2139    2142
    2181       2    2139    2178    2202       2    2115    2112    2133       2
    2106    2109    2130       2    2091    2088    2127       2    2088    2085
    2124       2    2085    2088    2127       2    2082    2085    2124       2
    2082    2109    2130       2    2076    2073    2121       2    2076    2112
    2133       2    2073    2070    2118       2    2070    2073    2121       2
    2067    2070    2118       2    2028    2025    2049       2    2025    2028
    2052       2    2022    2019    2043       2    2019    2022    2046       2
    2013    2010    2040       2    2013    2019    2043       2    2010    2007
    2037       2    2007    2010    2040       2    2004    2007    2037       2
    2004    2022    2046       2    1998    1995    2034       2    1998    2025
    2049       2    1995    1992    2031       2    1992    1995    2034       2
    1989    1992    2031       2    1989    2028    2052       2    1965    1962
    1983       2    1956    1959    1980       2    1941    1938    1977       2
    1938    1935    1974       2    1935    1938    1977       2    1932    1935
    1974       2    1932    1959    1980       2    1926    1923    1971       2
    1926    1962    1983       2    1923    1920    1968       2    1920    1923
    1971       2    1917    1920    1968       2    1878    1875    1899       2
    1875    1878    1902       2    1872    1869    1893       2    1869    1872
    1896       2    1863    1860    1890       2    1863    1869    1893       2
    1860    1857    1887       2    1857    1860    1890       2    1854    1857
    1887       2    1854    1872    1896       2    1848    1845    1884       2
    1848    1875    1899       2    1845    1842    1881       2    1842    1845
    1884       2    1839    1842    1881       2    1839    1878    1902       2
    1815    1812    1833       2    1806    1809    1830       2    1791    1788
    1827       2    1788    1785    1824       2    1785    1788    1827       2
    1782    1785    1824       2    1782    1809    1830       2    1776    1773
    1821       2    1776    1812    1833       2    1773    1770    1818       2
    1770    1773    1821       2    1767    1770    1818       2    1728    1725
    1749       2    1725    1728    1752       2    1722    1719    1743       2
    1719    1722    1746       2    1713    1710    1740       2    1713    1719
    1743       2    1710    1707    1737       2    1707    1710    1740       2
    1704    1707    1737       2    1704    1722    1746       2    1698    1695
    1734       2    1698    1725    1749       2    1695    1692    1731       2
    1692    1695    1734       2    1689    1692    1731       2    1689    1728
    1752       2    1665    1662    1683       2    1656    1659    1680       2
    1641    1638    1677       2    1638    1635    1674       2    1635    1638
    1677       2    1632    1635    1674       2    1632    1659    1680       2
    1626    1623    1671       2    1626    1662    1683       2    1623    1620
    1668       2    1620    1623    1671       2    1617    1620    1668       2
    1581    1536    1584      15    1575    1533    1578      16    1554    1557
    1596      18    1554    1560    1599       2    1548    1545    1590       2
    1548    1551    1593      18    1545    1542    1587       2    1542    1545
    1590       2    1539    1536    1581      19    1539    1536    1584      19
    1539    1542    1587       2    1539    1560    1599       2    1536    1533
    1575      20    1536    1533    1578      20    1533    1530    1572      22
    1533    1536    1581      24    1533    1536    1584      24    1530    1533
    1575      26    1530    1533    1578      26    1524    1530    1572      29
    1521    1518    1569       2    1521    1563    1602       2    1512    1509
    1566       2    1512    1518    1569       2    1506    1509    1566       2
    1506    1563    1602       2    1482    1479    1500       2    1473    1476
    1497       2    1458    1455    1494       2    1455    1452    1491       2
    1452    1455    1494       2    1449    1452    1491       2    1449    1476
    1497       2    1443    1440    1488       2    1443    1479    1500       2
    1440    1437    1485       2    1437    1440    1488       2    1434    1437
    1485       2    1392    1347    1395       1    1389    1386    1416       2
    1386    1389    1419       2    1383    1380    1410       2    1380    1383
    1413       2    1374    1371    1407       2    1374    1380    1410       2
    1371    1368    1404       2    1368    1371    1407       2    1365    1368
    1404       2    1365    1383    1413       2    1359    1356    1401       2
    1359    1386    1416       2    1356    1353    1398       2    1353    1356
    1401       2    1350    1347    1392       4    1350    1347    1395       4
    1350    1353    1398       2    1350    1389    1419       2    4023    3996
    4026       1    4008    4005    4035       2    4005    4008    4038       2
    4002    3999    4029       2    3999    4002    4032       2    3993    3990
    4020       2    3993    3996    4023       4    3993    3996    4026       4
    3993    3999    4029       2    3990    3987    4017       2    3987    3990
    4020       2    3984    3987    4017       2    3984    4002    4032       2
    3978    3975    4014       2    3978    4005    4035       2    3975    3972
    4011       2    3972    3975    4014       2    3969    3972    4011       2
    3969    4008    4038       2    3945    3942    3963       2    3936    3939
    3960       2    3921    3918    3957       2    3918    3915    3954       2
    3915    3918    3957       2    3912    3915    3954       2    3912    3939
    3960       2    3906    3903    3951       2    3906    3942    3963       2
    3903    3900    3948       2    3900    3903    3951       2    3897    3900
    3948       2    3861    3816    3864      15    3855    3813    3858      16
    3834    3837    3876      18    3834    3840    3879       2    3828    3825
    3870       2    3828    3831    3873      18    3825    3822    3867       2
    3822    3825    3870       2    3819    3816    3861      19    3819    3816
    3864      19    3819    3822    3867       2    3819    3840    3879       2
    3816    3813    3855      20    3816    3813    3858      20    3813    3810
    3852      22    3813    3816    3861      24    3813    3816    3864      24
    3810    3813    3855      26    3810    3813    3858      26    3804    3810
    3852      29    3801    3798    3849       2    3801    3843    3882       2
    3792    3789    3846       2    3792    3798    3849       2    3786    3789
    3846       2    3786    3843    3882       2    3762    3759    3780       2
    3753    3756    3777       2    3738    3735    3774       2    3735    3732
    3771       2    3732    3735    3774       2    3729    3732    3771       2
    3729    3756    3777       2    3723    3720    3768       2    3723    3759
    3780       2    3720    3717    3765       2    3717    3720    3768       2
    3714    3717    3765       2    3675    3672    3696       2    3672    3675
    3699       2    3669    3666    3690       2    3666    3669    3693       2
    3660    3657    3687       2    3660    3666    3690       2    3657    3654
    3684       2    3654    3657    3687       2    3651    3654    3684       2
    3651    3669    3693       2    3645    3642    3681       2    3645    3672
    3696       2    3642    3639    3678       2    3639    3642    3681       2
    3636    3639    3678       2    3636    3675    3699       2    3612    3609
    3630       2    3603    3606    3627       2    3588    3585    3624       2
    3585    3582    3621       2    3582    3585    3624       2    3579    3582
    3621       2    3579    3606    3627       2    3573    3570    3618       2
    3573    3609    3630       2    3570    3567    3615       2    3567    3570
    3618       2    3564    3567    3615       2    3525    3522    3546       2
    3522    3525    3549       2    3519    3516    3540       2    3516    3519
    3543       2    3510    3507    3537       2    3510    3516    3540       2
    3507    3504    3534       2    3504    3507    3537       2    3501    3504
    3534       2    3501    3519    3543       2    3495    3492    3531       2
    3495    3522    3546       2    3492    3489    3528       2    3489    3492
    3531       2    3486    3489    3528       2    3486    3525    3549       2
    3462    3459    3480       2    3453    3456    3477       2    3438    3435
    3474       2    3435    3432    3471       2    3432    3435    3474       2
    3429    3432    3471       2    3429    3456    3477       2    3423    3420
    3468       2    3423    3459    3480       2    3420    3417    3465       2
    3417    3420    3468       2    3414    3417    3465       2    3375    3372
    3396       2    3372    3375    3399       2    3369    3366    3390       2
    3366    3369    3393       2    3360    3357    3387       2    3360    3366
    3390       2    3357    3354    3384       2    3354    3357    3387       2
    3351    3354    3384       2    3351    3369    3393       2    3345    3342
    3381       2    3345    3372    3396       2    3342    3339    3378       2
    3339    3342    3381       2    3336    3339    3378       2    3336    3375
    3399       2    3312    3309    3330       2    3303    3306    3327       2
    3288    3285    3324       2    3285    3282    3321       2    3282    3285
    3324       2    3279    3282    3321       2    3279    3306    3327       2
    3273    3270    3318       2    3273    3309    3330       2    3270    3267
    3315       2    3267    3270    3318       2    3264    3267    3315       2
    3225    3222    3246       2    3222    3225    3249       2    3219    3216
    3240       2    3216    3219    3243       2    3210    3207    3237       2
    3210    3216    3240       2    3207    3204    3234       2    3204    3207
    3237       2    3201    3204    3234       2    3201    3219    3243       2
    3195    3192    3231       2    3195    3222    3246       2    3192    3189
    3228       2    3189    3192    3231       2    3186    3189    3228       2
    3186    3225    3249       2    3162    3159    3180       2    3153    3156
    3177       2    3138    3135    3174       2    3135    3132    3171       2
    3132    3135    3174       2    3129    3132    3171       2    3129    3156
    3177       2    3123    3120    3168       2    3123    3159    3180       2
    3120    3117    3165       2    3117    3120    3168       2    3114    3117
    3165       2    3075    3072    3096       2    3072    3075    3099       2
    3069    3066    3090       2    3066    3069    3093       2    3060    3057
    3087       2    3060    3066    3090       2    3057    3054    3084       2
    3054    3057    3087       2    3051    3054    3084       2    3051    3069
    3093       2    3045    3042    3081       2    3045    3072    3096       2
    3042    3039    3078       2    3039    3042    3081       2    3036    3039
    3078       2    3036    3075    3099       2    3012    3009    3030       2
    3003    3006    3027       2    2988    2985    3024       2    2985    2982
    3021       2    2982    2985    3024       2    2979    2982    3021       2
    2979    3006    3027       2    2973    2970    3018       2    2973    3009
    3030       2    2970    2967    3015       2    2967    2970    3018       2
    2964    2967    3015       2    2928    2883    2931      15    2922    2880
    2925      16    2901    2904    2943      18    2901    2907    2946       2
    2895    2892    2937       2    2895    2898    2940      18    2892    2889
    2934       2    2889    2892    2937       2    2886    2883    2928      19
    2886    2883    2931      19    2886    2889    2934       2    2886    2907
    2946       2    2883    2880    2922      20    2883    2880    2925      20
    2880    2877    2919      22    2880    2883    2928      24    2880    2883
    2931      24    2877    2880    2922      26    2877    2880    2925      26
    2871    2877    2919      29    2868    2865    2916       2    2868    2910
    2949       2    2859    2856    2913       2    2859    2865    2916       2
    2853    2856    2913       2    2853    2910    2949       2    2829    2826
    2847       2    2820    2823    2844       2    2805    2802    2841       2
    2802    2799    2838       2    2799    2802    2841       2    2796    2799
    2838       2    2796    2823    2844       2    2790    2787    2835       2
    2790    2826    2847       2    2787    2784    2832       2    2784    2787
    2835       2    2781    2784    2832       2    2739    2694    2742       1
    2736    2733    2763       2    2733    2736    2766       2    2730    2727
    2757       2    2727    2730    2760       2    2721    2718    2754       2
    2721    2727    2757       2    2718    2715    2751       2    2715    2718
    2754       2    2712    2715    2751       2    2712    2730    2760       2
    2706    2703    2748       2    2706    2733    2763       2    2703    2700
    2745       2    2700    2703    2748       2    2697    2694    2739       4
    2697    2694    2742       4    2697    2700    2745       2    2697    2736
    2766       2    5370    5343    5373       1    5355    5352    5382       2
    5352    5355    5385       2    5349    5346    5376       2    5346    5349
    5379       2    5340    5337    5367       2    5340    5343    5370       4
    5340    5343    5373       4    5340    5346    5376       2    5337    5334
    5364       2    5334    5337    5367       2    5331    5334    5364       2
    5331    5349    5379       2    5325    5322    5361       2    5325    5352
    5382       2    5322    5319    5358       2    5319    5322    5361       2
    5316    5319    5358       2    5316    5355    5385       2    5292    5289
    5310       2    5283    5286    5307       2    5268    5265    5304       2
    5265    5262    5301       2    5262    5265    5304       2    5259    5262
    5301       2    5259    5286    5307       2    5253    5250    5298       2
    5253    5289    5310       2    5250    5247    5295       2    5247    5250
    5298       2    5244    5247    5295       2    5208    5163    5211      15
    5202    5160    5205      16    5181    5184    5223      18    5181    5187
    5226       2    5175    5172    5217       2    5175    5178    5220      18
    5172    5169    5214       2    5169    5172    5217       2    5166    5163
    5208      19    5166    5163    5211      19    5166    5169    5214       2
    5166    5187    5226       2    5163    5160    5202      20    5163    5160
    5205      20    5160    5157    5199      22    5160    5163    5208      24
    5160    5163    5211      24    5157    5160    5202      26    5157    5160
    5205      26    5151    5157    5199      29    5148    5145    5196       2
    5148    5190    5229       2    5139    5136    5193       2    5139    5145
    5196       2    5133    5136    5193       2    5133    5190    5229       2
    5109    5106    5127       2    5100    5103    5124       2    5085    5082
    5121       2    5082    5079    5118       2    5079    5082    5121       2
    5076    5079    5118       2    5076    5103    5124       2    5070    5067
    5115       2    5070    5106    5127       2    5067    5064    5112       2
    5064    5067    5115       2    5061    5064    5112       2    5022    5019
    5043       2    5019    5022    5046       2    5016    5013    5037       2
    5013    5016    5040       2    5007    5004    5034       2    5007    5013
    5037       2    5004    5001    5031       2    5001    5004    5034       2
    4998    5001    5031       2    4998    5016    5040       2    4992    4989
    5028       2    4992    5019    5043       2    4989    4986    5025       2
    4986    4989    5028       2    4983    4986    5025       2    4983    5022
    5046       2    4959    4956    4977       2    4950    4953    4974       2
    4935    4932    4971       2    4932    4929    4968       2    4929    4932
    4971       2    4926    4929    4968       2    4926    4953    4974       2
    4920    4917    4965       2    4920    4956    4977       2    4917    4914
    4962       2    4914    4917    4965       2    4911    4914    4962       2
    4872    4869    4893       2    4869    4872    4896       2    4866    4863
    4887       2    4863    4866    4890       2    4857    4854    4884       2
    4857    4863    4887       2    4854    4851    4881       2    4851    4854
    4884       2    4848    4851    4881       2    4848    4866    4890       2
    4842    4839    4878       2    4842    4869    4893       2    4839    4836
    4875       2    4836    4839    4878       2    4833    4836    4875       2
    4833    4872    4896       2    4809    4806    4827       2    4800    4803
    4824       2    4785    4782    4821       2    4782    4779    4818       2
    4779    4782    4821       2    4776    4779    4818       2    4776    4803
    4824       2    4770    4767    4815       2    4770    4806    4827       2
    4767    4764    4812       2    4764    4767    4815       2    4761    4764
    4812       2    4722    4719    4743       2    4719    4722    4746       2
    4716    4713    4737       2    4713    4716    4740       2    4707    4704
    4734       2    4707    4713    4737       2    4704    4701    4731       2
    4701    4704    4734       2    4698    4701    4731       2    4698    4716
    4740       2    4692    4689    4728       2    4692    4719    4743       2
    4689    4686    4725       2    4686    4689    4728       2    4683    4686
    4725       2    4683    4722    4746       2    4659    4656    4677       2
    4650    4653    4674       2    4635    4632    4671       2    4632    4629
    4668       2    4629    4632    4671       2    4626    4629    4668       2
    4626    4653    4674       2    4620    4617    4665       2    4620    4656
    4677       2    4617    4614    4662       2    4614    4617    4665       2
    4611    4614    4662       2    4572    4569    4593       2    4569    4572
    4596       2    4566    4563    4587       2    4563    4566    4590       2
    4557    4554    4584       2    4557    4563    4587       2    4554    4551
    4581       2    4551    4554    4584       2    4548    4551    4581       2
    4548    4566    4590       2    4542    4539    4578       2    4542    4569
    4593       2    4539    4536    4575       2    4536    4539    4578       2
    4533    4536    4575       2    4533    4572    4596       2    4509    4506
    4527       2    4500    4503    4524       2    4485    4482    4521       2
    4482    4479    4518       2    4479    4482    4521       2    4476    4479
    4518       2    4476    4503    4524       2    4470    4467    4515       2
    4470    4506    4527       2    4467    4464    4512       2    4464    4467
    4515       2    4461    4464    4512       2    4422    4419    4443       2
    4419    4422    4446       2    4416    4413    4437       2    4413    4416
    4440       2    4407    4404    4434       2    4407    4413    4437       2
    4404    4401    4431       2    4401    4404    4434       2    4398    4401
    4431       2    4398    4416    4440       2    4392    4389    4428       2
    4392    4419    4443       2    4389    4386    4425       2    4386    4389
    4428       2    4383    4386    4425       2    4383    4422    4446       2
    4359    4356    4377       2    4350    4353    4374       2    4335    4332
    4371       2    4332    4329    4368       2    4329    4332    4371       2
    4326    4329    4368       2    4326    4353    4374       2    4320    4317
    4365       2    4320    4356    4377       2    4317    4314    4362       2
    4314    4317    4365       2    4311    4314    4362       2    4275    4230
    4278      15    4269    4227    4272      16    4248    4251    4290      18
    4248    4254    4293       2    4242    4239    4284       2    4242    4245
    4287      18    4239    4236    4281       2    4236    4239    4284       2
    4233    4230    4275      19    4233    4230    4278      19    4233    4236
    4281       2    4233    4254    4293       2    4230    4227    4269      20
    4230    4227    4272      20    4227    4224    4266      22    4227    4230
    4275      24    4227    4230    4278      24    4224    4227    4269      26
    4224    4227    4272      26    4218    4224    4266      29    4215    4212
    4263       2    4215    4257    4296       2    4206    4203    4260       2
    4206    4212    4263       2    4200    4203    4260       2    4200    4257
    4296       2    4176    4173    4194       2    4167    4170    4191       2
    4152    4149    4188       2    4149    4146    4185       2    4146    4149
    4188       2    4143    4146    4185       2    4143    4170    4191       2
    4137    4134    4182       2    4137    4173    4194       2    4134    4131
    4179       2    4131    4134    4182       2    4128    4131    4179       2
    4086    4041    4089       1    4083    4080    4110       2    4080    4083
    4113       2    4077    4074    4104       2    4074    4077    4107       2
    4068    4065    4101       2    4068    4074    4104       2    4065    4062
    4098       2    4062    4065    4101       2    4059    4062    4098       2
    4059    4077    4107       2    4053    4050    4095       2    4053    4080
    4110       2    4050    4047    4092       2    4047    4050    4095       2
    4044    4041    4086       4    4044    4041    4089       4    4044    4047
    4092       2    4044    4083    4113       2    6717    6690    6720       1
    6702    6699    6729       2    6699    6702    6732       2    6696    6693
    6723       2    6693    6696    6726       2    6687    6684    6714       2
    6687    6690    6717       4    6687    6690    6720       4    6687    6693
    6723       2    6684    6681    6711       2    6681    6684    6714       2
    6678    6681    6711       2    6678    6696    6726       2    6672    6669
    6708       2    6672    6699    6729       2    6669    6666    6705       2
    6666    6669    6708       2    6663    6666    6705       2    6663    6702
    6732       2    6639    6636    6657       2    6630    6633    6654       2
    6615    6612    6651       2    6612    6609    6648       2    6609    6612
    6651       2    6606    6609    6648       2    6606    6633    6654       2
    6600    6597    6645       2    6600    6636    6657       2    6597    6594
    6642       2    6594    6597    6645       2    6591    6594    6642       2
    6555    6510    6558      15    6549    6507    6552      16    6528    6531
    6570      18    6528    6534    6573       2    6522    6519    6564       2
    6522    6525    6567      18    6519    6516    6561       2    6516    6519
    6564       2    6513    6510    6555      19    6513    6510    6558      19
    6513    6516    6561       2    6513    6534    6573       2    6510    6507
    6549      20    6510    6507    6552      20    6507    6504    6546      22
    6507    6510    6555      24    6507    6510    6558      24    6504    6507
    6549      26    6504    6507    6552      26    6498    6504    6546      29
    6495    6492    6543       2    6495    6537    6576       2    6486    6483
    6540       2    6486    6492    6543       2    6480    6483    6540       2
    6480    6537    6576       2    6456    6453    6474       2    6447    6450
    6471       2    6432    6429    6468       2    6429    6426    6465       2
    6426    6429    6468       2    6423    6426    6465       2    6423    6450
    6471       2    6417    6414    6462       2    6417    6453    6474       2
    6414    6411    6459       2    6411    6414    6462       2    6408    6411
    6459       2    6369    6366    6390       2    6366    6369    6393       2
    6363    6360    6384       2    6360    6363    6387       2    6354    6351
    6381       2    6354    6360    6384       2    6351    6348    6378       2
    6348    6351    6381       2    6345    6348    6378       2    6345    6363
    6387       2    6339    6336    6375       2    6339    6366    6390       2
    6336    6333    6372       2    6333    6336    6375       2    6330    6333
    6372       2    6330    6369    6393       2    6306    6303    6324       2
    6297    6300    6321       2    6282    6279    6318       2    6279    6276
    6315       2    6276    6279    6318       2    6273    6276    6315       2
    6273    6300    6321       2    6267    6264    6312       2    6267    6303
    6324       2    6264    6261    6309       2    6261    6264    6312       2
    6258    6261    6309       2    6219    6216    6240       2    6216    6219
    6243       2    6213    6210    6234       2    6210    6213    6237       2
    6204    6201    6231       2    6204    6210    6234       2    6201    6198
    6228       2    6198    6201    6231       2    6195    6198    6228       2
    6195    6213    6237       2    6189    6186    6225       2    6189    6216
    6240       2    6186    6183    6222       2    6183    6186    6225       2
    6180    6183    6222       2    6180    6219    6243       2    6156    6153
    6174       2    6147    6150    6171       2    6132    6129    6168       2
    6129    6126    6165       2    6126    6129    6168       2    6123    6126
    6165       2    6123    6150    6171       2    6117    6114    6162       2
    6117    6153    6174       2    6114    6111    6159       2    6111    6114
    6162       2    6108    6111    6159       2    6069    6066    6090       2
    6066    6069    6093       2    6063    6060    6084       2    6060    6063
    6087       2    6054    6051    6081       2    6054    6060    6084       2
    6051    6048    6078       2    6048    6051    6081       2    6045    6048
    6078       2    6045    6063    6087       2    6039    6036    6075       2
    6039    6066    6090       2    6036    6033    6072       2    6033    6036
    6075       2    6030    6033    6072       2    6030    6069    6093       2
    6006    6003    6024       2    5997    6000    6021       2    5982    5979
    6018       2    5979    5976    6015       2    5976    5979    6018       2
    5973    5976    6015       2    5973    6000    6021       2    5967    5964
    6012       2    5967    6003    6024       2    5964    5961    6009       2
    5961    5964    6012       2    5958    5961    6009       2    5919    5916
    5940       2    5916    5919    5943       2    5913    5910    5934       2
    5910    5913    5937       2    5904    5901    5931       2    5904    5910
    5934       2    5901    5898    5928       2    5898    5901    5931       2
    5895    5898    5928       2    5895    5913    5937       2    5889    5886
    5925       2    5889    5916    5940       2    5886    5883    5922       2
    5883    5886    5925       2    5880    5883    5922       2    5880    5919
    5943       2    5856    5853    5874       2    5847    5850    5871       2
    5832    5829    5868       2    5829    5826    5865       2    5826    5829
    5868       2    5823    5826    5865       2    5823    5850    5871       2
    5817    5814    5862       2    5817    5853    5874       2    5814    5811
    5859       2    5811    5814    5862       2    5808    5811    5859       2
    5769    5766    5790       2    5766    5769    5793       2    5763    5760
    5784       2    5760    5763    5787       2    5754    5751    5781       2
    5754    5760    5784       2    5751    5748    5778       2    5748    5751
    5781       2    5745    5748    5778       2    5745    5763    5787       2
    5739    5736    5775       2    5739    5766    5790       2    5736    5733
    5772       2    5733    5736    5775       2    5730    5733    5772       2
    5730    5769    5793       2    5706    5703    5724       2    5697    5700
    5721       2    5682    5679    5718       2    5679    5676    5715       2
    5676    5679    5718       2    5673    5676    5715       2    5673    5700
    5721       2    5667    5664    5712       2    5667    5703    5724       2
    5664    5661    5709       2    5661    5664    5712       2    5658    5661
    5709       2    5622    5577    5625      15    5616    5574    5619      16
    5595    5598    5637      18    5595    5601    5640       2    5589    5586
    5631       2    5589    5592    5634      18    5586    5583    5628       2
    5583    5586    5631       2    5580    5577    5622      19    5580    5577
    5625      19    5580    5583    5628       2    5580    5601    5640       2
    5577    5574    5616      20    5577    5574    5619      20    5574    5571
    5613      22    5574    5577    5622      24    5574    5577    5625      24
    5571    5574    5616      26    5571    5574    5619      26    5565    5571
    5613      29    5562    5559    5610       2    5562    5604    5643       2
    5553    5550    5607       2    5553    5559    5610       2    5547    5550
    5607       2    5547    5604    5643       2    5523    5520    5541       2
    5514    5517    5538       2    5499    5496    5535       2    5496    5493
    5532       2    5493    5496    5535       2    5490    5493    5532       2
    5490    5517    5538       2    5484    5481    5529       2    5484    5520
    5541       2    5481    5478    5526       2    5478    5481    5529       2
    5475    5478    5526       2    5433    5388    5436       1    5430    5427
    5457       2    5427    5430    5460       2    5424    5421    5451       2
    5421    5424    5454       2    5415    5412    5448       2    5415    5421
    5451       2    5412    5409    5445       2    5409    5412    5448       2
    5406    5409    5445       2    5406    5424    5454       2    5400    5397
    5442       2    5400    5427    5457       2    5397    5394    5439       2
    5394    5397    5442       2    5391    5388    5433       4    5391    5388
    5436       4    5391    5394    5439       2    5391    5430    5460       2
    8064    8037    8067       1    8049    8046    8076       2    8046    8049
    8079       2    8043    8040    8070       2    8040    8043    8073       2
    8034    8031    8061       2    8034    8037    8064       4    8034    8037
    8067       4    8034    8040    8070       2    8031    8028    8058       2
    8028    8031    8061       2    8025    8028    8058       2    8025    8043
    8073       2    8019    8016    8055       2    8019    8046    8076       2
    8016    8013    8052       2    8013    8016    8055       2    8010    8013
    8052       2    8010    8049    8079       2    7986    7983    8004       2
    7977    7980    8001       2    7962    7959    7998       2    7959    7956
    7995       2    7956    7959    7998       2    7953    7956    7995       2
    7953    7980    8001       2    7947    7944    7992       2    7947    7983
    8004       2    7944    7941    7989       2    7941    7944    7992       2
    7938    7941    7989       2    7902    7857    7905      15    7896    7854
    7899      16    7875    7878    7917      18    7875    7881    7920       2
    7869    7866    7911       2    7869    7872    7914      18    7866    7863
    7908       2    7863    7866    7911       2    7860    7857    7902      19
    7860    7857    7905      19    7860    7863    7908       2    7860    7881
    7920       2    7857    7854    7896      20    7857    7854    7899      20
    7854    7851    7893      22    7854    7857    7902      24    7854    7857
    7905      24    7851    7854    7896      26    7851    7854    7899      26
    7845    7851    7893      29    7842    7839    7890       2    7842    7884
    7923       2    7833    7830    7887       2    7833    7839    7890       2
    7827    7830    7887       2    7827    7884    7923       2    7803    7800
    7821       2    7794    7797    7818       2    7779    7776    7815       2
    7776    7773    7812       2    7773    7776    7815       2    7770    7773
    7812       2    7770    7797    7818       2    7764    7761    7809       2
    7764    7800    7821       2    7761    7758    7806       2    7758    7761
    7809       2    7755    7758    7806       2    7716    7713    7737       2
    7713    7716    7740       2    7710    7707    7731       2    7707    7710
    7734       2    7701    7698    7728       2    7701    7707    7731       2
    7698    7695    7725       2    7695    7698    7728       2    7692    7695
    7725       2    7692    7710    7734       2    7686    7683    7722       2
    7686    7713    7737       2    7683    7680    7719       2    7680    7683
    7722       2    7677    7680    7719       2    7677    7716    7740       2
    7653    7650    7671       2    7644    7647    7668       2    7629    7626
    7665       2    7626    7623    7662       2    7623    7626    7665       2
    7620    7623    7662       2    7620    7647    7668       2    7614    7611
    7659       2    7614    7650    7671       2    7611    7608    7656       2
    7608    7611    7659       2    7605    7608    7656       2    7566    7563
    7587       2    7563    7566    7590       2    7560    7557    7581       2
    7557    7560    7584       2    7551    7548    7578       2    7551    7557
    7581       2    7548    7545    7575       2    7545    7548    7578       2
    7542    7545    7575       2    7542    7560    7584       2    7536    7533
    7572       2    7536    7563    7587       2    7533    7530    7569       2
    7530    7533    7572       2    7527    7530    7569       2    7527    7566
    7590       2    7503    7500    7521       2    7494    7497    7518       2
    7479    7476    7515       2    7476    7473    7512       2    7473    7476
    7515       2    7470    7473    7512       2    7470    7497    7518       2
    7464    7461    7509       2    7464    7500    7521       2    7461    7458
    7506       2    7458    7461    7509       2    7455    7458    7506       2
    7416    7413    7437       2    7413    7416    7440       2    7410    7407
    7431       2    7407    7410    7434       2    7401    7398    7428       2
    7401    7407    7431       2    7398    7395    7425       2    7395    7398
    7428       2    7392    7395    7425       2    7392    7410    7434       2
    7386    7383    7422       2    7386    7413    7437       2    7383    7380
    7419       2    7380    7383    7422       2    7377    7380    7419       2
    7377    7416    7440       2    7353    7350    7371       2    7344    7347
    7368       2    7329    7326    7365       2    7326    7323    7362       2
    7323    7326    7365       2    7320    7323    7362       2    7320    7347
    7368       2    7314    7311    7359       2    7314    7350    7371       2
    7311    7308    7356       2    7308    7311    7359       2    7305    7308
    7356       2    7266    7263    7287       2    7263    7266    7290       2
    7260    7257    7281       2    7257    7260    7284       2    7251    7248
    7278       2    7251    7257    7281       2    7248    7245    7275       2
    7245    7248    7278       2    7242    7245    7275       2    7242    7260
    7284       2    7236    7233    7272       2    7236    7263    7287       2
    7233    7230    7269       2    7230    7233    7272       2    7227    7230
    7269       2    7227    7266    7290       2    7203    7200    7221       2
    7194    7197    7218       2    7179    7176    7215       2    7176    7173
    7212       2    7173    7176    7215       2    7170    7173    7212       2
    7170    7197    7218       2    7164    7161    7209       2    7164    7200
    7221       2    7161    7158    7206       2    7158    7161    7209       2
    7155    7158    7206       2    7116    7113    7137       2    7113    7116
    7140       2    7110    7107    7131       2    7107    7110    7134       2
    7101    7098    7128       2    7101    7107    7131       2    7098    7095
    7125       2    7095    7098    7128       2    7092    7095    7125       2
    7092    7110    7134       2    7086    7083    7122       2    7086    7113
    7137       2    7083    7080    7119       2    7080    7083    7122       2
    7077    7080    7119       2    7077    7116    7140       2    7053    7050
    7071       2    7044    7047    7068       2    7029    7026    7065       2
    7026    7023    7062       2    7023    7026    7065       2    7020    7023
    7062       2    7020    7047    7068       2    7014    7011    7059       2
    7014    7050    7071       2    7011    7008    7056       2    7008    7011
    7059       2    7005    7008    7056       2    6969    6924    6972      15
    6963    6921    6966      16    6942    6945    6984      18    6942    6948
    6987       2    6936    6933    6978       2    6936    6939    6981      18
    6933    6930    6975       2    6930    6933    6978       2    6927    6924
    6969      19    6927    6924    6972      19    6927    6930    6975       2
    6927    6948    6987       2    6924    6921    6963      20    6924    6921
    6966      20    6921    6918    6960      22    6921    6924    6969      24
    6921    6924    6972      24    6918    6921    6963      26    6918    6921
    6966      26    6912    6918    6960      29    6909    6906    6957       2
    6909    6951    6990       2    6900    6897    6954       2    6900    6906
    6957       2    6894    6897    6954       2    6894    6951    6990       2
    6870    6867    6888       2    6861    6864    6885       2    6846    6843
    6882       2    6843    6840    6879       2    6840    6843    6882       2
    6837    6840    6879       2    6837    6864    6885       2    6831    6828
    6876       2    6831    6867    6888       2    6828    6825    6873       2
    6825    6828    6876       2    6822    6825    6873       2    6780    6735
    6783       1    6777    6774    6804       2    6774    6777    6807       2
    6771    6768    6798       2    6768    6771    6801       2    6762    6759
    6795       2    6762    6768    6798       2    6759    6756    6792       2
    6756    6759    6795       2    6753    6756    6792       2    6753    6771
    6801       2    6747    6744    6789       2    6747    6774    6804       2
    6744    6741    6786       2    6741    6744    6789       2    6738    6735
    6780       4    6738    6735    6783       4    6738    6741    6786       2
    6738    6777    6807       2
%FLAG ANGLES_WITHOUT_HYDROGEN                                                   
%FORMAT(10I8)                                                                   
    1302    1299    1305       3    1299    1305    1308       5    1296    1299
    1302       3    1296    1299    1305       5    1293    1290    1308       5
    1293    1296    1299       5    1290    1293    1296       5    1290    1308
    1305       5    1287    1284    1311       6    1287    1290    1293       6
    1287    1290    1308       6    1284    1287    1290       7    1284    1311
    1314       5    1281    1284    1287       6    1281    1284    1311       5
    1278    1275    1314       5    1278    1281    1284       5    1275    1278
    1281       5    1275    1314    1311       5    1272    1275    1278       8
    1272    1275    1314       8    1242    1236    1272       9    1239    1236
    1242      10    1239    1236    1272      11    1236    1242    1245      12
    1236    1272    1275      13    1233    1230    1272      11    1230    1227
    1242      12    1230    1272    1275      13    1230    1272    1236      14
    1227    1230    1233      10    1227    1230    1272       9    1227    1242
    1236      12    1227    1242    1245       5    1224    1227    1230      12
    1224    1227    1242       5    1221    1218    1245       5    1221    1224
    1227       5    1218    1221    1224       5    1218    1245    1242       5
    1215    1212    1248       6    1215    1218    1221       6    1215    1218
    1245       6    1212    1215    1218       7    1212    1248    1251       5
    1209    1212    1215       6    1209    1212    1248       5    1206    1203
    1251       5    1206    1209    1212       5    1203    1206    1209       5
    1203    1251    1248       5    1200    1197    1203      10    1197    1203
    1206      12    1197    1203    1251      12    1194    1251    1248      12
    1194    1251    1203      12    1194    1101    1197      14    1191    1194
    1251      10    1143    1140    1146      17    1137    1134    1140      17
    1134    1140    1143      17    1134    1140    1146       5    1131    1134
    1137      17    1131    1134    1140       5    1128    1125    1146       5
    1128    1131    1134       5    1125    1128    1131       5    1125    1146
    1140       5    1122    1125    1128      21    1122    1125    1146      21
    1119    1122    1125      23    1116    1119    1122      25    1113    1110
    1116      27    1110    1107    1149      12    1110    1116    1119      28
    1107    1110    1113      10    1107    1110    1116      30    1104    1107
    1110      12    1104    1107    1149       5    1101    1098    1104       8
    1101    1194    1191      11    1101    1194    1251       9    1101    1197
    1200      11    1101    1197    1203       9    1098    1101    1194      13
    1098    1101    1197      13    1098    1104    1107       5    1095    1092
    1149       5    1095    1098    1101       8    1095    1098    1104       5
    1092    1095    1098       5    1092    1149    1107       5    1089    1092
    1095       8    1089    1092    1149       8    1059    1053    1089       9
    1056    1053    1059      10    1056    1053    1089      11    1053    1059
    1062      12    1053    1089    1092      13    1050    1047    1089      11
    1047    1044    1059      12    1047    1089    1092      13    1047    1089
    1053      14    1044    1047    1050      10    1044    1047    1089       9
    1044    1059    1053      12    1044    1059    1062       5    1041    1044
    1047      12    1041    1044    1059       5    1038    1035    1062       5
    1038    1041    1044       5    1035    1038    1041       5    1035    1062
    1059       5    1032    1029    1065       6    1032    1035    1038       6
    1032    1035    1062       6    1029    1032    1035       7    1029    1065
    1068       5    1026    1029    1032       6    1026    1029    1065       5
    1023    1020    1068       5    1023    1026    1029       5    1020    1023
    1026       5    1020    1068    1065       5    1017    1014    1020      10
    1014    1020    1023      12    1014    1020    1068      12    1011    1068
    1065      12    1011    1068    1020      12    1011     969    1014      14
    1008    1011    1068      10     969     966     972       8     969    1011
    1008      11     969    1011    1068       9     969    1014    1017      11
     969    1014    1020       9     966     969    1011      13     966     969
    1014      13     966     972     975       5     963     966     969       8
     963     966     972       5     960     957     975       5     960     963
     966       5     957     960     963       5     957     975     972       5
     954     951     978       6     954     957     960       6     954     957
     975       6     951     954     957       7     951     978     981       5
     948     951     954       6     948     951     978       5     945     942
     981       5     945     948     951       5     942     945     948       5
     942     981     978       5     939     942     945       8     939     942
     981       8     909     903     939       9     906     903     909      10
     906     903     939      11     903     909     912      12     903     939
     942      13     900     897     939      11     897     894     909      12
     897     939     942      13     897     939     903      14     894     897
     900      10     894     897     939       9     894     909     903      12
     894     909     912       5     891     894     897      12     891     894
     909       5     888     885     912       5     888     891     894       5
     885     888     891       5     885     912     909       5     882     879
     915       6     882     885     888       6     882     885     912       6
     879     882     885       7     879     915     918       5     876     879
     882       6     876     879     915       5     873     870     918       5
     873     876     879       5     870     873     876       5     870     918
     915       5     867     864     870      10     864     870     873      12
     864     870     918      12     861     918     915      12     861     918
     870      12     861     819     864      14     858     861     918      10
     819     816     822       8     819     861     858      11     819     861
     918       9     819     864     867      11     819     864     870       9
     816     819     861      13     816     819     864      13     816     822
     825       5     813     816     819       8     813     816     822       5
     810     807     825       5     810     813     816       5     807     810
     813       5     807     825     822       5     804     801     828       6
     804     807     810       6     804     807     825       6     801     804
     807       7     801     828     831       5     798     801     804       6
     798     801     828       5     795     792     831       5     795     798
     801       5     792     795     798       5     792     831     828       5
     789     792     795       8     789     792     831       8     759     753
     789       9     756     753     759      10     756     753     789      11
     753     759     762      12     753     789     792      13     750     747
     789      11     747     744     759      12     747     789     792      13
     747     789     753      14     744     747     750      10     744     747
     789       9     744     759     753      12     744     759     762       5
     741     744     747      12     741     744     759       5     738     735
     762       5     738     741     744       5     735     738     741       5
     735     762     759       5     732     729     765       6     732     735
     738       6     732     735     762       6     729     732     735       7
     729     765     768       5     726     729     732       6     726     729
     765       5     723     720     768       5     723     726     729       5
     720     723     726       5     720     768     765       5     717     714
     720      10     714     720     723      12     714     720     768      12
     711     768     765      12     711     768     720      12     711     669
     714      14     708     711     768      10     669     666     672       8
     669     711     708      11     669     711     768       9     669     714
     717      11     669     714     720       9     666     669     711      13
     666     669     714      13     666     672     675       5     663     666
     669       8     663     666     672       5     660     657     675       5
     660     663     666       5     657     660     663       5     657     675
     672       5     654     651     678       6     654     657     660       6
     654     657     675       6     651     654     657       7     651     678
     681       5     648     651     654       6     648     651     678       5
     645     642     681       5     645     648     651       5     642     645
     648       5     642     681     678       5     639     642     645       8
     639     642     681       8     609     603     639       9     606     603
     609      10     606     603     639      11     603     609     612      12
     603     639     642      13     600     597     639      11     597     594
     609      12     597     639     642      13     597     639     603      14
     594     597     600      10     594     597     639       9     594     609
     603      12     594     609     612       5     591     594     597      12
     591     594     609       5     588     585     612       5     588     591
     594       5     585     588     591       5     585     612     609       5
     582     579     615       6     582     585     588       6     582     585
     612       6     579     582     585       7     579     615     618       5
     576     579     582       6     576     579     615       5     573     570
     618       5     573     576     579       5     570     573     576       5
     570     618     615       5     567     564     570      10     564     570
     573      12     564     570     618      12     561     618     615      12
     561     618     570      12     561     519     564      14     558     561
     618      10     519     516     522       8     519     561     558      11
     519     561     618       9     519     564     567      11     519     564
     570       9     516     519     561      13     516     519     564      13
     516     522     525       5     513     516     519       8     513     516
     522       5     510     507     525       5     510     513     516       5
     507     510     513       5     507     525     522       5     504     501
     528       6     504     507     510       6     504     507     525       6
     501     504     507       7     501     528     531       5     498     501
     504       6     498     501     528       5     495     492     531       5
     495     498     501       5     492     495     498       5     492     531
     528       5     489     492     495       8     489     492     531       8
     459     453     489       9     456     453     459      10     456     453
     489      11     453     459     462      12     453     489     492      13
     450     447     489      11     447     444     459      12     447     489
     492      13     447     489     453      14     444     447     450      10
     444     447     489       9     444     459     453      12     444     459
     462       5     441     444     447      12     441     444     459       5
     438     435     462       5     438     441     444       5     435     438
     441       5     435     462     459       5     432     429     465       6
     432     435     438       6     432     435     462       6     429     432
     435       7     429     465     468       5     426     429     432       6
     426     429     465       5     423     420     468       5     423     426
     429       5     420     423     426       5     420     468     465       5
     417     414     420      10     414     420     423      12     414     420
     468      12     411     468     465      12     411     468     420      12
     411     369     414      14     408     411     468      10     369     366
     372       8     369     411     408      11     369     411     468       9
     369     414     417      11     369     414     420       9     366     369
     411      13     366     369     414      13     366     372     375       5
     363     366     369       8     363     366     372       5     360     357
     375       5     360     363     366       5     357     360     363       5
     357     375     372       5     354     351     378       6     354     357
     360       6     354     357     375       6     351     354     357       7
     351     378     381       5     348     351     354       6     348     351
     378       5     345     342     381       5     345     348     351       5
     342     345     348       5     342     381     378       5     339     342
     345       8     339     342     381       8     309     303     339       9
     306     303     309      10     306     303     339      11     303     309
     312      12     303     339     342      13     300     297     339      11
     297     294     309      12     297     339     342      13     297     339
     303      14     294     297     300      10     294     297     339       9
     294     309     303      12     294     309     312       5     291     294
     297      12     291     294     309       5     288     285     312       5
     288     291     294       5     285     288     291       5     285     312
     309       5     282     279     315       6     282     285     288       6
     282     285     312       6     279     282     285       7     279     315
     318       5     276     279     282       6     276     279     315       5
     273     270     318       5     273     276     279       5     270     273
     276       5     270     318     315       5     267     264     270      10
     264     270     273      12     264     270     318      12     261     318
     315      12     261     318     270      12     261     168     264      14
     258     261     318      10     210     207     213      17     204     201
     207      17     201     207     210      17     201     207     213       5
     198     201     204      17     198     201     207       5     195     192
     213       5     195     198     201       5     192     195     198       5
     192     213     207       5     189     192     195      21     189     192
     213      21     186     189     192      23     183     186     189      25
     180     177     183      27     177     174     216      12     177     183
     186      28     174     177     180      10     174     177     183      30
     171     174     177      12     171     174     216       5     168     165
     171       8     168     261     258      11     168     261     318       9
     168     264     267      11     168     264     270       9     165     168
     261      13     165     168     264      13     165     171     174       5
     162     159     216       5     162     165     168       8     162     165
     171       5     159     162     165       5     159     216     174       5
     156     159     162       8     156     159     216       8     126     120
     156       9     123     120     126      10     123     120     156      11
     120     126     129      12     120     156     159      13     117     114
     156      11     114     111     126      12     114     156     159      13
     114     156     120      14     111     114     117      10     111     114
     156       9     111     126     120      12     111     126     129       5
     108     111     114      12     108     111     126       5     105     102
     129       5     105     108     111       5     102     105     108       5
     102     129     126       5      99      96     132       6      99     102
     105       6      99     102     129       6      96      99     102       7
      96     132     135       5      93      96      99       6      93      96
     132       5      90      87     135       5      90      93      96       5
      87      90      93       5      87     135     132       5      84      81
      87      10      81      87      90      12      81      87     135      12
      78     135     132      12      78     135      87      12      78      30
      81      14      75      78     135      10      30      27      33       8
      30      78      75      11      30      78     135       9      30      81
      84      11      30      81      87       9      27      30      78      13
      27      30      81      13      27      33      36       5      24      27
      30       8      24      27      33       5      21      18      36       5
      21      24      27       5      18      21      24       5      18      36
      33       5      15      12      39       6      15      18      21       6
      15      18      36       6      12      15      18       7      12      39
      42       5       9      12      15       6       9      12      39       5
       6       3      42       5       6       9      12       5       3       6
       9       5       3      42      39       5       0       3       6       3
       0       3      42       3    2649    2646    2652       3    2646    2652
    2655       5    2643    2646    2649       3    2643    2646    2652       5
    2640    2637    2655       5    2640    2643    2646       5    2637    2640
    2643       5    2637    2655    2652       5    2634    2631    2658       6
    2634    2637    2640       6    2634    2637    2655       6    2631    2634
    2637       7    2631    2658    2661       5    2628    2631    2634       6
    2628    2631    2658       5    2625    2622    2661       5    2625    2628
    2631       5    2622    2625    2628       5    2622    2661    2658       5
    2619    2622    2625       8    2619    2622    2661       8    2589    2583
    2619       9    2586    2583    2589      10    2586    2583    2619      11
    2583    2589    2592      12    2583    2619    2622      13    2580    2577
    2619      11    2577    2574    2589      12    2577    2619    2622      13
    2577    2619    2583      14    2574    2577    2580      10    2574    2577
    2619       9    2574    2589    2583      12    2574    2589    2592       5
    2571    2574    2577      12    2571    2574    2589       5    2568    2565
    2592       5    2568    2571    2574       5    2565    2568    2571       5
    2565    2592    2589       5    2562    2559    2595       6    2562    2565
    2568       6    2562    2565    2592       6    2559    2562    2565       7
    2559    2595    2598       5    2556    2559    2562       6    2556    2559
    2595       5    2553    2550    2598       5    2553    2556    2559       5
    2550    2553    2556       5    2550    2598    2595       5    2547    2544
    2550      10    2544    2550    2553      12    2544    2550    2598      12
    2541    2598    2595      12    2541    2598    2550      12    2541    2448
    2544      14    2538    2541    2598      10    2490    2487    2493      17
    2484    2481    2487      17    2481    2487    2490      17    2481    2487
    2493       5    2478    2481    2484      17    2478    2481    2487       5
    2475    2472    2493       5    2475    2478    2481       5    2472    2475
    2478       5    2472    2493    2487       5    2469    2472    2475      21
    2469    2472    2493      21    2466    2469    2472      23    2463    2466
    2469      25    2460    2457    2463      27    2457    2454    2496      12
    2457    2463    2466      28    2454    2457    2460      10    2454    2457
    2463      30    2451    2454    2457      12    2451    2454    2496       5
    2448    2445    2451       8    2448    2541    2538      11    2448    2541
    2598       9    2448    2544    2547      11    2448    2544    2550       9
    2445    2448    2541      13    2445    2448    2544      13    2445    2451
    2454       5    2442    2439    2496       5    2442    2445    2448       8
    2442    2445    2451       5    2439    2442    2445       5    2439    2496
    2454       5    2436    2439    2442       8    2436    2439    2496       8
    2406    2400    2436       9    2403    2400    2406      10    2403    2400
    2436      11    2400    2406    2409      12    2400    2436    2439      13
    2397    2394    2436      11    2394    2391    2406      12    2394    2436
    2439      13    2394    2436    2400      14    2391    2394    2397      10
    2391    2394    2436       9    2391    2406    2400      12    2391    2406
    2409       5    2388    2391    2394      12    2388    2391    2406       5
    2385    2382    2409       5    2385    2388    2391       5    2382    2385
    2388       5    2382    2409    2406       5    2379    2376    2412       6
    2379    2382    2385       6    2379    2382    2409       6    2376    2379
    2382       7    2376    2412    2415       5    2373    2376    2379       6
    2373    2376    2412       5    2370    2367    2415       5    2370    2373
    2376       5    2367    2370    2373       5    2367    2415    2412       5
    2364    2361    2367      10    2361    2367    2370      12    2361    2367
    2415      12    2358    2415    2412      12    2358    2415    2367      12
    2358    2316    2361      14    2355    2358    2415      10    2316    2313
    2319       8    2316    2358    2355      11    2316    2358    2415       9
    2316    2361    2364      11    2316    2361    2367       9    2313    2316
    2358      13    2313    2316    2361      13    2313    2319    2322       5
    2310    2313    2316       8    2310    2313    2319       5    2307    2304
    2322       5    2307    2310    2313       5    2304    2307    2310       5
    2304    2322    2319       5    2301    2298    2325       6    2301    2304
    2307       6    2301    2304    2322       6    2298    2301    2304       7
    2298    2325    2328       5    2295    2298    2301       6    2295    2298
    2325       5    2292    2289    2328       5    2292    2295    2298       5
    2289    2292    2295       5    2289    2328    2325       5    2286    2289
    2292       8    2286    2289    2328       8    2256    2250    2286       9
    2253    2250    2256      10    2253    2250    2286      11    2250    2256
    2259      12    2250    2286    2289      13    2247    2244    2286      11
    2244    2241    2256      12    2244    2286    2289      13    2244    2286
    2250      14    2241    2244    2247      10    2241    2244    2286       9
    2241    2256    2250      12    2241    2256    2259       5    2238    2241
    2244      12    2238    2241    2256       5    2235    2232    2259       5
    2235    2238    2241       5    2232    2235    2238       5    2232    2259
    2256       5    2229    2226    2262       6    2229    2232    2235       6
    2229    2232    2259       6    2226    2229    2232       7    2226    2262
    2265       5    2223    2226    2229       6    2223    2226    2262       5
    2220    2217    2265       5    2220    2223    2226       5    2217    2220
    2223       5    2217    2265    2262       5    2214    2211    2217      10
    2211    2217    2220      12    2211    2217    2265      12    2208    2265
    2262      12    2208    2265    2217      12    2208    2166    2211      14
    2205    2208    2265      10    2166    2163    2169       8    2166    2208
    2205      11    2166    2208    2265       9    2166    2211    2214      11
    2166    2211    2217       9    2163    2166    2208      13    2163    2166
    2211      13    2163    2169    2172       5    2160    2163    2166       8
    2160    2163    2169       5    2157    2154    2172       5    2157    2160
    2163       5    2154    2157    2160       5    2154    2172    2169       5
    2151    2148    2175       6    2151    2154    2157       6    2151    2154
    2172       6    2148    2151    2154       7    2148    2175    2178       5
    2145    2148    2151       6    2145    2148    2175       5    2142    2139
    2178       5    2142    2145    2148       5    2139    2142    2145       5
    2139    2178    2175       5    2136    2139    2142       8    2136    2139
    2178       8    2106    2100    2136       9    2103    2100    2106      10
    2103    2100    2136      11    2100    2106    2109      12    2100    2136
    2139      13    2097    2094    2136      11    2094    2091    2106      12
    2094    2136    2139      13    2094    2136    2100      14    2091    2094
    2097      10    2091    2094    2136       9    2091    2106    2100      12
    2091    2106    2109       5    2088    2091    2094      12    2088    2091
    2106       5    2085    2082    2109       5    2085    2088    2091       5
    2082    2085    2088       5    2082    2109    2106       5    2079    2076
    2112       6    2079    2082    2085       6    2079    2082    2109       6
    2076    2079    2082       7    2076    2112    2115       5    2073    2076
    2079       6    2073    2076    2112       5    2070    2067    2115       5
    2070    2073    2076       5    2067    2070    2073       5    2067    2115
    2112       5    2064    2061    2067      10    2061    2067    2070      12
    2061    2067    2115      12    2058    2115    2112      12    2058    2115
    2067      12    2058    2016    2061      14    2055    2058    2115      10
    2016    2013    2019       8    2016    2058    2055      11    2016    2058
    2115       9    2016    2061    2064      11    2016    2061    2067       9
    2013    2016    2058      13    2013    2016    2061      13    2013    2019
    2022       5    2010    2013    2016       8    2010    2013    2019       5
    2007    2004    2022       5    2007    2010    2013       5    2004    2007
    2010       5    2004    2022    2019       5    2001    1998    2025       6
    2001    2004    2007       6    2001    2004    2022       6    1998    2001
    2004       7    1998    2025    2028       5    1995    1998    2001       6
    1995    1998    2025       5    1992    1989    2028       5    1992    1995
    1998       5    1989    1992    1995       5    1989    2028    2025       5
    1986    1989    1992       8    1986    1989    2028       8    1956    1950
    1986       9    1953    1950    1956      10    1953    1950    1986      11
    1950    1956    1959      12    1950    1986    1989      13    1947    1944
    1986      11    1944    1941    1956      12    1944    1986    1989      13
    1944    1986    1950      14    1941    1944    1947      10    1941    1944
    1986       9    1941    1956    1950      12    1941    1956    1959       5
    1938    1941    1944      12    1938    1941    1956       5    1935    1932
    1959       5    1935    1938    1941       5    1932    1935    1938       5
    1932    1959    1956       5    1929    1926    1962       6    1929    1932
    1935       6    1929    1932    1959       6    1926    1929    1932       7
    1926    1962    1965       5    1923    1926    1929       6    1923    1926
    1962       5    1920    1917    1965       5    1920    1923    1926       5
    1917    1920    1923       5    1917    1965    1962       5    1914    1911
    1917      10    1911    1917    1920      12    1911    1917    1965      12
    1908    1965    1962      12    1908    1965    1917      12    1908    1866
    1911      14    1905    1908    1965      10    1866    1863    1869       8
    1866    1908    1905      11    1866    1908    1965       9    1866    1911
    1914      11    1866    1911    1917       9    1863    1866    1908      13
    1863    1866    1911      13    1863    1869    1872       5    1860    1863
    1866       8    1860    1863    1869       5    1857    1854    1872       5
    1857    1860    1863       5    1854    1857    1860       5    1854    1872
    1869       5    1851    1848    1875       6    1851    1854    1857       6
    1851    1854    1872       6    1848    1851    1854       7    1848    1875
    1878       5    1845    1848    1851       6    1845    1848    1875       5
    1842    1839    1878       5    1842    1845    1848       5    1839    1842
    1845       5    1839    1878    1875       5    1836    1839    1842       8
    1836    1839    1878       8    1806    1800    1836       9    1803    1800
    1806      10    1803    1800    1836      11    1800    1806    1809      12
    1800    1836    1839      13    1797    1794    1836      11    1794    1791
    1806      12    1794    1836    1839      13    1794    1836    1800      14
    1791    1794    1797      10    1791    1794    1836       9    1791    1806
    1800      12    1791    1806    1809       5    1788    1791    1794      12
    1788    1791    1806       5    1785    1782    1809       5    1785    1788
    1791       5    1782    1785    1788       5    1782    1809    1806       5
    1779    1776    1812       6    1779    1782    1785       6    1779    1782
    1809       6    1776    1779    1782       7    1776    1812    1815       5
    1773    1776    1779       6    1773    1776    1812       5    1770    1767
    1815       5    1770    1773    1776       5    1767    1770    1773       5
    1767    1815    1812       5    1764    1761    1767      10    1761    1767
    1770      12    1761    1767    1815      12    1758    1815    1812      12
    1758    1815    1767      12    1758    1716    1761      14    1755    1758
    1815      10    1716    1713    1719       8    1716    1758    1755      11
    1716    1758    1815       9    1716    1761    1764      11    1716    1761
    1767       9    1713    1716    1758      13    1713    1716    1761      13
    1713    1719    1722       5    1710    1713    1716       8    1710    1713
    1719       5    1707    1704    1722       5    1707    1710    1713       5
    1704    1707    1710       5    1704    1722    1719       5    1701    1698
    1725       6    1701    1704    1707       6    1701    1704    1722       6
    1698    1701    1704       7    1698    1725    1728       5    1695    1698
    1701       6    1695    1698    1725       5    1692    1689    1728       5
    1692    1695    1698       5    1689    1692    1695       5    1689    1728
    1725       5    1686    1689    1692       8    1686    1689    1728       8
    1656    1650    1686       9    1653    1650    1656      10    1653    1650
    1686      11    1650    1656    1659      12    1650    1686    1689      13
    1647    1644    1686      11    1644    1641    1656      12    1644    1686
    1689      13    1644    1686    1650      14    1641    1644    1647      10
    1641    1644    1686       9    1641    1656    1650      12    1641    1656
    1659       5    1638    1641    1644      12    1638    1641    1656       5
    1635    1632    1659       5    1635    1638    1641       5    1632    1635
    1638       5    1632    1659    1656       5    1629    1626    1662       6
    1629    1632    1635       6    1629    1632    1659       6    1626    1629
    1632       7    1626    1662    1665       5    1623    1626    1629       6
    1623    1626    1662       5    1620    1617    1665       5    1620    1623
    1626       5    1617    1620    1623       5    1617    1665    1662       5
    1614    1611    1617      10    1611    1617    1620      12    1611    1617
    1665      12    1608    1665    1662      12    1608    1665    1617      12
    1608    1515    1611      14    1605    1608    1665      10    1557    1554
    1560      17    1551    1548    1554      17    1548    1554    1557      17
    1548    1554    1560       5    1545    1548    1551      17    1545    1548
    1554       5    1542    1539    1560       5    1542    1545    1548       5
    1539    1542    1545       5    1539    1560    1554       5    1536    1539
    1542      21    1536    1539    1560      21    1533    1536    1539      23
    1530    1533    1536      25    1527    1524    1530      27    1524    1521
    1563      12    1524    1530    1533      28    1521    1524    1527      10
    1521    1524    1530      30    1518    1521    1524      12    1518    1521
    1563       5    1515    1512    1518       8    1515    1608    1605      11
    1515    1608    1665       9    1515    1611    1614      11    1515    1611
    1617       9    1512    1515    1608      13    1512    1515    1611      13
    1512    1518    1521       5    1509    1506    1563       5    1509    1512
    1515       8    1509    1512    1518       5    1506    1509    1512       5
    1506    1563    1521       5    1503    1506    1509       8    1503    1506
    1563       8    1473    1467    1503       9    1470    1467    1473      10
    1470    1467    1503      11    1467    1473    1476      12    1467    1503
    1506      13    1464    1461    1503      11    1461    1458    1473      12
    1461    1503    1506      13    1461    1503    1467      14    1458    1461
    1464      10    1458    1461    1503       9    1458    1473    1467      12
    1458    1473    1476       5    1455    1458    1461      12    1455    1458
    1473       5    1452    1449    1476       5    1452    1455    1458       5
    1449    1452    1455       5    1449    1476    1473       5    1446    1443
    1479       6    1446    1449    1452       6    1446    1449    1476       6
    1443    1446    1449       7    1443    1479    1482       5    1440    1443
    1446       6    1440    1443    1479       5    1437    1434    1482       5
    1437    1440    1443       5    1434    1437    1440       5    1434    1482
    1479       5    1431    1428    1434      10    1428    1434    1437      12
    1428    1434    1482      12    1425    1482    1479      12    1425    1482
    1434      12    1425    1377    1428      14    1422    1425    1482      10
    1377    1374    1380       8    1377    1425    1422      11    1377    1425
    1482       9    1377    1428    1431      11    1377    1428    1434       9
    1374    1377    1425      13    1374    1377    1428      13    1374    1380
    1383       5    1371    1374    1377       8    1371    1374    1380       5
    1368    1365    1383       5    1368    1371    1374       5    1365    1368
    1371       5    1365    1383    1380       5    1362    1359    1386       6
    1362    1365    1368       6    1362    1365    1383       6    1359    1362
    1365       7    1359    1386    1389       5    1356    1359    1362       6
    1356    1359    1386       5    1353    1350    1389       5    1353    1356
    1359       5    1350    1353    1356       5    1350    1389    1386       5
    1347    1350    1353       3    1347    1350    1389       3    3996    3993
    3999       3    3993    3999    4002       5    3990    3993    3996       3
    3990    3993    3999       5    3987    3984    4002       5    3987    3990
    3993       5    3984    3987    3990       5    3984    4002    3999       5
    3981    3978    4005       6    3981    3984    3987       6    3981    3984
    4002       6    3978    3981    3984       7    3978    4005    4008       5
    3975    3978    3981       6    3975    3978    4005       5    3972    3969
    4008       5    3972    3975    3978       5    3969    3972    3975       5
    3969    4008    4005       5    3966    3969    3972       8    3966    3969
    4008       8    3936    3930    3966       9    3933    3930    3936      10
    3933    3930    3966      11    3930    3936    3939      12    3930    3966
    3969      13    3927    3924    3966      11    3924    3921    3936      12
    3924    3966    3969      13    3924    3966    3930      14    3921    3924
    3927      10    3921    3924    3966       9    3921    3936    3930      12
    3921    3936    3939       5    3918    3921    3924      12    3918    3921
    3936       5    3915    3912    3939       5    3915    3918    3921       5
    3912    3915    3918       5    3912    3939    3936       5    3909    3906
    3942       6    3909    3912    3915       6    3909    3912    3939       6
    3906    3909    3912       7    3906    3942    3945       5    3903    3906
    3909       6    3903    3906    3942       5    3900    3897    3945       5
    3900    3903    3906       5    3897    3900    3903       5    3897    3945
    3942       5    3894    3891    3897      10    3891    3897    3900      12
    3891    3897    3945      12    3888    3945    3942      12    3888    3945
    3897      12    3888    3795    3891      14    3885    3888    3945      10
    3837    3834    3840      17    3831    3828    3834      17    3828    3834
    3837      17    3828    3834    3840       5    3825    3828    3831      17
    3825    3828    3834       5    3822    3819    3840       5    3822    3825
    3828       5    3819    3822    3825       5    3819    3840    3834       5
    3816    3819    3822      21    3816    3819    3840      21    3813    3816
    3819      23    3810    3813    3816      25    3807    3804    3810      27
    3804    3801    3843      12    3804    3810    3813      28    3801    3804
    3807      10    3801    3804    3810      30    3798    3801    3804      12
    3798    3801    3843       5    3795    3792    3798       8    3795    3888
    3885      11    3795    3888    3945       9    3795    3891    3894      11
    3795    3891    3897       9    3792    3795    3888      13    3792    3795
    3891      13    3792    3798    3801       5    3789    3786    3843       5
    3789    3792    3795       8    3789    3792    3798       5    3786    3789
    3792       5    3786    3843    3801       5    3783    3786    3789       8
    3783    3786    3843       8    3753    3747    3783       9    3750    3747
    3753      10    3750    3747    3783      11    3747    3753    3756      12
    3747    3783    3786      13    3744    3741    3783      11    3741    3738
    3753      12    3741    3783    3786      13    3741    3783    3747      14
    3738    3741    3744      10    3738    3741    3783       9    3738    3753
    3747      12    3738    3753    3756       5    3735    3738    3741      12
    3735    3738    3753       5    3732    3729    3756       5    3732    3735
    3738       5    3729    3732    3735       5    3729    3756    3753       5
    3726    3723    3759       6    3726    3729    3732       6    3726    3729
    3756       6    3723    3726    3729       7    3723    3759    3762       5
    3720    3723    3726       6    3720    3723    3759       5    3717    3714
    3762       5    3717    3720    3723       5    3714    3717    3720       5
    3714    3762    3759       5    3711    3708    3714      10    3708    3714
    3717      12    3708    3714    3762      12    3705    3762    3759      12
    3705    3762    3714      12    3705    3663    3708      14    3702    3705
    3762      10    3663    3660    3666       8    3663    3705    3702      11
    3663    3705    3762       9    3663    3708    3711      11    3663    3708
    3714       9    3660    3663    3705      13    3660    3663    3708      13
    3660    3666    3669       5    3657    3660    3663       8    3657    3660
    3666       5    3654    3651    3669       5    3654    3657    3660       5
    3651    3654    3657       5    3651    3669    3666       5    3648    3645
    3672       6    3648    3651    3654       6    3648    3651    3669       6
    3645    3648    3651       7    3645    3672    3675       5    3642    3645
    3648       6    3642    3645    3672       5    3639    3636    3675       5
    3639    3642    3645       5    3636    3639    3642       5    3636    3675
    3672       5    3633    3636    3639       8    3633    3636    3675       8
    3603    3597    3633       9    3600    3597    3603      10    3600    3597
    3633      11    3597    3603    3606      12    3597    3633    3636      13
    3594    3591    3633      11    3591    3588    3603      12    3591    3633
    3636      13    3591    3633    3597      14    3588    3591    3594      10
    3588    3591    3633       9    3588    3603    3597      12    3588    3603
    3606       5    3585    3588    3591      12    3585    3588    3603       5
    3582    3579    3606       5    3582    3585    3588       5    3579    3582
    3585       5    3579    3606    3603       5    3576    3573    3609       6
    3576    3579    3582       6    3576    3579    3606       6    3573    3576
    3579       7    3573    3609    3612       5    3570    3573    3576       6
    3570    3573    3609       5    3567    3564    3612       5    3567    3570
    3573       5    3564    3567    3570       5    3564    3612    3609       5
    3561    3558    3564      10    3558    3564    3567      12    3558    3564
    3612      12    3555    3612    3609      12    3555    3612    3564      12
    3555    3513    3558      14    3552    3555    3612      10    3513    3510
    3516       8    3513    3555    3552      11    3513    3555    3612       9
    3513    3558    3561      11    3513    3558    3564       9    3510    3513
    3555      13    3510    3513    3558      13    3510    3516    3519       5
    3507    3510    3513       8    3507    3510    3516       5    3504    3501
    3519       5    3504    3507    3510       5    3501    3504    3507       5
    3501    3519    3516       5    3498    3495    3522       6    3498    3501
    3504       6    3498    3501    3519       6    3495    3498    3501       7
    3495    3522    3525       5    3492    3495    3498       6    3492    3495
    3522       5    3489    3486    3525       5    3489    3492    3495       5
    3486    3489    3492       5    3486    3525    3522       5    3483    3486
    3489       8    3483    3486    3525       8    3453    3447    3483       9
    3450    3447    3453      10    3450    3447    3483      11    3447    3453
    3456      12    3447    3483    3486      13    3444    3441    3483      11
    3441    3438    3453      12    3441    3483    3486      13    3441    3483
    3447      14    3438    3441    3444      10    3438    3441    3483       9
    3438    3453    3447      12    3438    3453    3456       5    3435    3438
    3441      12    3435    3438    3453       5    3432    3429    3456       5
    3432    3435    3438       5    3429    3432    3435       5    3429    3456
    3453       5    3426    3423    3459       6    3426    3429    3432       6
    3426    3429    3456       6    3423    3426    3429       7    3423    3459
    3462       5    3420    3423    3426       6    3420    3423    3459       5
    3417    3414    3462       5    3417    3420    3423       5    3414    3417
    3420       5    3414    3462    3459       5    3411    3408    3414      10
    3408    3414    3417      12    3408    3414    3462      12    3405    3462
    3459      12    3405    3462    3414      12    3405    3363    3408      14
    3402    3405    3462      10    3363    3360    3366       8    3363    3405
    3402      11    3363    3405    3462       9    3363    3408    3411      11
    3363    3408    3414       9    3360    3363    3405      13    3360    3363
    3408      13    3360    3366    3369       5    3357    3360    3363       8
    3357    3360    3366       5    3354    3351    3369       5    3354    3357
    3360       5    3351    3354    3357       5    3351    3369    3366       5
    3348    3345    3372       6    3348    3351    3354       6    3348    3351
    3369       6    3345    3348    3351       7    3345    3372    3375       5
    3342    3345    3348       6    3342    3345    3372       5    3339    3336
    3375       5    3339    3342    3345       5    3336    3339    3342       5
    3336    3375    3372       5    3333    3336    3339       8    3333    3336
    3375       8    3303    3297    3333       9    3300    3297    3303      10
    3300    3297    3333      11    3297    3303    3306      12    3297    3333
    3336      13    3294    3291    3333      11    3291    3288    3303      12
    3291    3333    3336      13    3291    3333    3297      14    3288    3291
    3294      10    3288    3291    3333       9    3288    3303    3297      12
    3288    3303    3306       5    3285    3288    3291      12    3285    3288
    3303       5    3282    3279    3306       5    3282    3285    3288       5
    3279    3282    3285       5    3279    3306    3303       5    3276    3273
    3309       6    3276    3279    3282       6    3276    3279    3306       6
    3273    3276    3279       7    3273    3309    3312       5    3270    3273
    3276       6    3270    3273    3309       5    3267    3264    3312       5
    3267    3270    3273       5    3264    3267    3270       5    3264    3312
    3309       5    3261    3258    3264      10    3258    3264    3267      12
    3258    3264    3312      12    3255    3312    3309      12    3255    3312
    3264      12    3255    3213    3258      14    3252    3255    3312      10
    3213    3210    3216       8    3213    3255    3252      11    3213    3255
    3312       9    3213    3258    3261      11    3213    3258    3264       9
    3210    3213    3255      13    3210    3213    3258      13    3210    3216
    3219       5    3207    3210    3213       8    3207    3210    3216       5
    3204    3201    3219       5    3204    3207    3210       5    3201    3204
    3207       5    3201    3219    3216       5    3198    3195    3222       6
    3198    3201    3204       6    3198    3201    3219       6    3195    3198
    3201       7    3195    3222    3225       5    3192    3195    3198       6
    3192    3195    3222       5    3189    3186    3225       5    3189    3192
    3195       5    3186    3189    3192       5    3186    3225    3222       5
    3183    3186    3189       8    3183    3186    3225       8    3153    3147
    3183       9    3150    3147    3153      10    3150    3147    3183      11
    3147    3153    3156      12    3147    3183    3186      13    3144    3141
    3183      11    3141    3138    3153      12    3141    3183    3186      13
    3141    3183    3147      14    3138    3141    3144      10    3138    3141
    3183       9    3138    3153    3147      12    3138    3153    3156       5
    3135    3138    3141      12    3135    3138    3153       5    3132    3129
    3156       5    3132    3135    3138       5    3129    3132    3135       5
    3129    3156    3153       5    3126    3123    3159       6    3126    3129
    3132       6    3126    3129    3156       6    3123    3126    3129       7
    3123    3159    3162       5    3120    3123    3126       6    3120    3123
    3159       5    3117    3114    3162       5    3117    3120    3123       5
    3114    3117    3120       5    3114    3162    3159       5    3111    3108
    3114      10    3108    3114    3117      12    3108    3114    3162      12
    3105    3162    3159      12    3105    3162    3114      12    3105    3063
    3108      14    3102    3105    3162      10    3063    3060    3066       8
    3063    3105    3102      11    3063    3105    3162       9    3063    3108
    3111      11    3063    3108    3114       9    3060    3063    3105      13
    3060    3063    3108      13    3060    3066    3069       5    3057    3060
    3063       8    3057    3060    3066       5    3054    3051    3069       5
    3054    3057    3060       5    3051    3054    3057       5    3051    3069
    3066       5    3048    3045    3072       6    3048    3051    3054       6
    3048    3051    3069       6    3045    3048    3051       7    3045    3072
    3075       5    3042    3045    3048       6    3042    3045    3072       5
    3039    3036    3075       5    3039    3042    3045       5    3036    3039
    3042       5    3036    3075    3072       5    3033    3036    3039       8
    3033    3036    3075       8    3003    2997    3033       9    3000    2997
    3003      10    3000    2997    3033      11    2997    3003    3006      12
    2997    3033    3036      13    2994    2991    3033      11    2991    2988
    3003      12    2991    3033    3036      13    2991    3033    2997      14
    2988    2991    2994      10    2988    2991    3033       9    2988    3003
    2997      12    2988    3003    3006       5    2985    2988    2991      12
    2985    2988    3003       5    2982    2979    3006       5    2982    2985
    2988       5    2979    2982    2985       5    2979    3006    3003       5
    2976    2973    3009       6    2976    2979    2982       6    2976    2979
    3006       6    2973    2976    2979       7    2973    3009    3012       5
    2970    2973    2976       6    2970    2973    3009       5    2967    2964
    3012       5    2967    2970    2973       5    2964    2967    2970       5
    2964    3012    3009       5    2961    2958    2964      10    2958    2964
    2967      12    2958    2964    3012      12    2955    3012    3009      12
    2955    3012    2964      12    2955    2862    2958      14    2952    2955
    3012      10    2904    2901    2907      17    2898    2895    2901      17
    2895    2901    2904      17    2895    2901    2907       5    2892    2895
    2898      17    2892    2895    2901       5    2889    2886    2907       5
    2889    2892    2895       5    2886    2889    2892       5    2886    2907
    2901       5    2883    2886    2889      21    2883    2886    2907      21
    2880    2883    2886      23    2877    2880    2883      25    2874    2871
    2877      27    2871    2868    2910      12    2871    2877    2880      28
    2868    2871    2874      10    2868    2871    2877      30    2865    2868
    2871      12    2865    2868    2910       5    2862    2859    2865       8
    2862    2955    2952      11    2862    2955    3012       9    2862    2958
    2961      11    2862    2958    2964       9    2859    2862    2955      13
    2859    2862    2958      13    2859    2865    2868       5    2856    2853
    2910       5    2856    2859    2862       8    2856    2859    2865       5
    2853    2856    2859       5    2853    2910    2868       5    2850    2853
    2856       8    2850    2853    2910       8    2820    2814    2850       9
    2817    2814    2820      10    2817    2814    2850      11    2814    2820
    2823      12    2814    2850    2853      13    2811    2808    2850      11
    2808    2805    2820      12    2808    2850    2853      13    2808    2850
    2814      14    2805    2808    2811      10    2805    2808    2850       9
    2805    2820    2814      12    2805    2820    2823       5    2802    2805
    2808      12    2802    2805    2820       5    2799    2796    2823       5
    2799    2802    2805       5    2796    2799    2802       5    2796    2823
    2820       5    2793    2790    2826       6    2793    2796    2799       6
    2793    2796    2823       6    2790    2793    2796       7    2790    2826
    2829       5    2787    2790    2793       6    2787    2790    2826       5
    2784    2781    2829       5    2784    2787    2790       5    2781    2784
    2787       5    2781    2829    2826       5    2778    2775    2781      10
    2775    2781    2784      12    2775    2781    2829      12    2772    2829
    2826      12    2772    2829    2781      12    2772    2724    2775      14
    2769    2772    2829      10    2724    2721    2727       8    2724    2772
    2769      11    2724    2772    2829       9    2724    2775    2778      11
    2724    2775    2781       9    2721    2724    2772      13    2721    2724
    2775      13    2721    2727    2730       5    2718    2721    2724       8
    2718    2721    2727       5    2715    2712    2730       5    2715    2718
    2721       5    2712    2715    2718       5    2712    2730    2727       5
    2709    2706    2733       6    2709    2712    2715       6    2709    2712
    2730       6    2706    2709    2712       7    2706    2733    2736       5
    2703    2706    2709       6    2703    2706    2733       5    2700    2697
    2736       5    2700    2703    2706       5    2697    2700    2703       5
    2697    2736    2733       5    2694    2697    2700       3    2694    2697
    2736       3    5343    5340    5346       3    5340    5346    5349       5
    5337    5340    5343       3    5337    5340    5346       5    5334    5331
    5349       5    5334    5337    5340       5    5331    5334    5337       5
    5331    5349    5346       5    5328    5325    5352       6    5328    5331
    5334       6    5328    5331    5349       6    5325    5328    5331       7
    5325    5352    5355       5    5322    5325    5328       6    5322    5325
    5352       5    5319    5316    5355       5    5319    5322    5325       5
    5316    5319    5322       5    5316    5355    5352       5    5313    5316
    5319       8    5313    5316    5355       8    5283    5277    5313       9
    5280    5277    5283      10    5280    5277    5313      11    5277    5283
    5286      12    5277    5313    5316      13    5274    5271    5313      11
    5271    5268    5283      12    5271    5313    5316      13    5271    5313
    5277      14    5268    5271    5274      10    5268    5271    5313       9
    5268    5283    5277      12    5268    5283    5286       5    5265    5268
    5271      12    5265    5268    5283       5    5262    5259    5286       5
    5262    5265    5268       5    5259    5262    5265       5    5259    5286
    5283       5    5256    5253    5289       6    5256    5259    5262       6
    5256    5259    5286       6    5253    5256    5259       7    5253    5289
    5292       5    5250    5253    5256       6    5250    5253    5289       5
    5247    5244    5292       5    5247    5250    5253       5    5244    5247
    5250       5    5244    5292    5289       5    5241    5238    5244      10
    5238    5244    5247      12    5238    5244    5292      12    5235    5292
    5289      12    5235    5292    5244      12    5235    5142    5238      14
    5232    5235    5292      10    5184    5181    5187      17    5178    5175
    5181      17    5175    5181    5184      17    5175    5181    5187       5
    5172    5175    5178      17    5172    5175    5181       5    5169    5166
    5187       5    5169    5172    5175       5    5166    5169    5172       5
    5166    5187    5181       5    5163    5166    5169      21    5163    5166
    5187      21    5160    5163    5166      23    5157    5160    5163      25
    5154    5151    5157      27    5151    5148    5190      12    5151    5157
    5160      28    5148    5151    5154      10    5148    5151    5157      30
    5145    5148    5151      12    5145    5148    5190       5    5142    5139
    5145       8    5142    5235    5232      11    5142    5235    5292       9
    5142    5238    5241      11    5142    5238    5244       9    5139    5142
    5235      13    5139    5142    5238      13    5139    5145    5148       5
    5136    5133    5190       5    5136    5139    5142       8    5136    5139
    5145       5    5133    5136    5139       5    5133    5190    5148       5
    5130    5133    5136       8    5130    5133    5190       8    5100    5094
    5130       9    5097    5094    5100      10    5097    5094    5130      11
    5094    5100    5103      12    5094    5130    5133      13    5091    5088
    5130      11    5088    5085    5100      12    5088    5130    5133      13
    5088    5130    5094      14    5085    5088    5091      10    5085    5088
    5130       9    5085    5100    5094      12    5085    5100    5103       5
    5082    5085    5088      12    5082    5085    5100       5    5079    5076
    5103       5    5079    5082    5085       5    5076    5079    5082       5
    5076    5103    5100       5    5073    5070    5106       6    5073    5076
    5079       6    5073    5076    5103       6    5070    5073    5076       7
    5070    5106    5109       5    5067    5070    5073       6    5067    5070
    5106       5    5064    5061    5109       5    5064    5067    5070       5
    5061    5064    5067       5    5061    5109    5106       5    5058    5055
    5061      10    5055    5061    5064      12    5055    5061    5109      12
    5052    5109    5106      12    5052    5109    5061      12    5052    5010
    5055      14    5049    5052    5109      10    5010    5007    5013       8
    5010    5052    5049      11    5010    5052    5109       9    5010    5055
    5058      11    5010    5055    5061       9    5007    5010    5052      13
    5007    5010    5055      13    5007    5013    5016       5    5004    5007
    5010       8    5004    5007    5013       5    5001    4998    5016       5
    5001    5004    5007       5    4998    5001    5004       5    4998    5016
    5013       5    4995    4992    5019       6    4995    4998    5001       6
    4995    4998    5016       6    4992    4995    4998       7    4992    5019
    5022       5    4989    4992    4995       6    4989    4992    5019       5
    4986    4983    5022       5    4986    4989    4992       5    4983    4986
    4989       5    4983    5022    5019       5    4980    4983    4986       8
    4980    4983    5022       8    4950    4944    4980       9    4947    4944
    4950      10    4947    4944    4980      11    4944    4950    4953      12
    4944    4980    4983      13    4941    4938    4980      11    4938    4935
    4950      12    4938    4980    4983      13    4938    4980    4944      14
    4935    4938    4941      10    4935    4938    4980       9    4935    4950
    4944      12    4935    4950    4953       5    4932    4935    4938      12
    4932    4935    4950       5    4929    4926    4953       5    4929    4932
    4935       5    4926    4929    4932       5    4926    4953    4950       5
    4923    4920    4956       6    4923    4926    4929       6    4923    4926
    4953       6    4920    4923    4926       7    4920    4956    4959       5
    4917    4920    4923       6    4917    4920    4956       5    4914    4911
    4959       5    4914    4917    4920       5    4911    4914    4917       5
    4911    4959    4956       5    4908    4905    4911      10    4905    4911
    4914      12    4905    4911    4959      12    4902    4959    4956      12
    4902    4959    4911      12    4902    4860    4905      14    4899    4902
    4959      10    4860    4857    4863       8    4860    4902    4899      11
    4860    4902    4959       9    4860    4905    4908      11    4860    4905
    4911       9    4857    4860    4902      13    4857    4860    4905      13
    4857    4863    4866       5    4854    4857    4860       8    4854    4857
    4863       5    4851    4848    4866       5    4851    4854    4857       5
    4848    4851    4854       5    4848    4866    4863       5    4845    4842
    4869       6    4845    4848    4851       6    4845    4848    4866       6
    4842    4845    4848       7    4842    4869    4872       5    4839    4842
    4845       6    4839    4842    4869       5    4836    4833    4872       5
    4836    4839    4842       5    4833    4836    4839       5    4833    4872
    4869       5    4830    4833    4836       8    4830    4833    4872       8
    4800    4794    4830       9    4797    4794    4800      10    4797    4794
    4830      11    4794    4800    4803      12    4794    4830    4833      13
    4791    4788    4830      11    4788    4785    4800      12    4788    4830
    4833      13    4788    4830    4794      14    4785    4788    4791      10
    4785    4788    4830       9    4785    4800    4794      12    4785    4800
    4803       5    4782    4785    4788      12    4782    4785    4800       5
    4779    4776    4803       5    4779    4782    4785       5    4776    4779
    4782       5    4776    4803    4800       5    4773    4770    4806       6
    4773    4776    4779       6    4773    4776    4803       6    4770    4773
    4776       7    4770    4806    4809       5    4767    4770    4773       6
    4767    4770    4806       5    4764    4761    4809       5    4764    4767
    4770       5    4761    4764    4767       5    4761    4809    4806       5
    4758    4755    4761      10    4755    4761    4764      12    4755    4761
    4809      12    4752    4809    4806      12    4752    4809    4761      12
    4752    4710    4755      14    4749    4752    4809      10    4710    4707
    4713       8    4710    4752    4749      11    4710    4752    4809       9
    4710    4755    4758      11    4710    4755    4761       9    4707    4710
    4752      13    4707    4710    4755      13    4707    4713    4716       5
    4704    4707    4710       8    4704    4707    4713       5    4701    4698
    4716       5    4701    4704    4707       5    4698    4701    4704       5
    4698    4716    4713       5    4695    4692    4719       6    4695    4698
    4701       6    4695    4698    4716       6    4692    4695    4698       7
    4692    4719    4722       5    4689    4692    4695       6    4689    4692
    4719       5    4686    4683    4722       5    4686    4689    4692       5
    4683    4686    4689       5    4683    4722    4719       5    4680    4683
    4686       8    4680    4683    4722       8    4650    4644    4680       9
    4647    4644    4650      10    4647    4644    4680      11    4644    4650
    4653      12    4644    4680    4683      13    4641    4638    4680      11
    4638    4635    4650      12    4638    4680    4683      13    4638    4680
    4644      14    4635    4638    4641      10    4635    4638    4680       9
    4635    4650    4644      12    4635    4650    4653       5    4632    4635
    4638      12    4632    4635    4650       5    4629    4626    4653       5
    4629    4632    4635       5    4626    4629    4632       5    4626    4653
    4650       5    4623    4620    4656       6    4623    4626    4629       6
    4623    4626    4653       6    4620    4623    4626       7    4620    4656
    4659       5    4617    4620    4623       6    4617    4620    4656       5
    4614    4611    4659       5    4614    4617    4620       5    4611    4614
    4617       5    4611    4659    4656       5    4608    4605    4611      10
    4605    4611    4614      12    4605    4611    4659      12    4602    4659
    4656      12    4602    4659    4611      12    4602    4560    4605      14
    4599    4602    4659      10    4560    4557    4563       8    4560    4602
    4599      11    4560    4602    4659       9    4560    4605    4608      11
    4560    4605    4611       9    4557    4560    4602      13    4557    4560
    4605      13    4557    4563    4566       5    4554    4557    4560       8
    4554    4557    4563       5    4551    4548    4566       5    4551    4554
    4557       5    4548    4551    4554       5    4548    4566    4563       5
    4545    4542    4569       6    4545    4548    4551       6    4545    4548
    4566       6    4542    4545    4548       7    4542    4569    4572       5
    4539    4542    4545       6    4539    4542    4569       5    4536    4533
    4572       5    4536    4539    4542       5    4533    4536    4539       5
    4533    4572    4569       5    4530    4533    4536       8    4530    4533
    4572       8    4500    4494    4530       9    4497    4494    4500      10
    4497    4494    4530      11    4494    4500    4503      12    4494    4530
    4533      13    4491    4488    4530      11    4488    4485    4500      12
    4488    4530    4533      13    4488    4530    4494      14    4485    4488
    4491      10    4485    4488    4530       9    4485    4500    4494      12
    4485    4500    4503       5    4482    4485    4488      12    4482    4485
    4500       5    4479    4476    4503       5    4479    4482    4485       5
    4476    4479    4482       5    4476    4503    4500       5    4473    4470
    4506       6    4473    4476    4479       6    4473    4476    4503       6
    4470    4473    4476       7    4470    4506    4509       5    4467    4470
    4473       6    4467    4470    4506       5    4464    4461    4509       5
    4464    4467    4470       5    4461    4464    4467       5    4461    4509
    4506       5    4458    4455    4461      10    4455    4461    4464      12
    4455    4461    4509      12    4452    4509    4506      12    4452    4509
    4461      12    4452    4410    4455      14    4449    4452    4509      10
    4410    4407    4413       8    4410    4452    4449      11    4410    4452
    4509       9    4410    4455    4458      11    4410    4455    4461       9
    4407    4410    4452      13    4407    4410    4455      13    4407    4413
    4416       5    4404    4407    4410       8    4404    4407    4413       5
    4401    4398    4416       5    4401    4404    4407       5    4398    4401
    4404       5    4398    4416    4413       5    4395    4392    4419       6
    4395    4398    4401       6    4395    4398    4416       6    4392    4395
    4398       7    4392    4419    4422       5    4389    4392    4395       6
    4389    4392    4419       5    4386    4383    4422       5    4386    4389
    4392       5    4383    4386    4389       5    4383    4422    4419       5
    4380    4383    4386       8    4380    4383    4422       8    4350    4344
    4380       9    4347    4344    4350      10    4347    4344    4380      11
    4344    4350    4353      12    4344    4380    4383      13    4341    4338
    4380      11    4338    4335    4350      12    4338    4380    4383      13
    4338    4380    4344      14    4335    4338    4341      10    4335    4338
    4380       9    4335    4350    4344      12    4335    4350    4353       5
    4332    4335    4338      12    4332    4335    4350       5    4329    4326
    4353       5    4329    4332    4335       5    4326    4329    4332       5
    4326    4353    4350       5    4323    4320    4356       6    4323    4326
    4329       6    4323    4326    4353       6    4320    4323    4326       7
    4320    4356    4359       5    4317    4320    4323       6    4317    4320
    4356       5    4314    4311    4359       5    4314    4317    4320       5
    4311    4314    4317       5    4311    4359    4356       5    4308    4305
    4311      10    4305    4311    4314      12    4305    4311    4359      12
    4302    4359    4356      12    4302    4359    4311      12    4302    4209
    4305      14    4299    4302    4359      10    4251    4248    4254      17
    4245    4242    4248      17    4242    4248    4251      17    4242    4248
    4254       5    4239    4242    4245      17    4239    4242    4248       5
    4236    4233    4254       5    4236    4239    4242       5    4233    4236
    4239       5    4233    4254    4248       5    4230    4233    4236      21
    4230    4233    4254      21    4227    4230    4233      23    4224    4227
    4230      25    4221    4218    4224      27    4218    4215    4257      12
    4218    4224    4227      28    4215    4218    4221      10    4215    4218
    4224      30    4212    4215    4218      12    4212    4215    4257       5
    4209    4206    4212       8    4209    4302    4299      11    4209    4302
    4359       9    4209    4305    4308      11    4209    4305    4311       9
    4206    4209    4302      13    4206    4209    4305      13    4206    4212
    4215       5    4203    4200    4257       5    4203    4206    4209       8
    4203    4206    4212       5    4200    4203    4206       5    4200    4257
    4215       5    4197    4200    4203       8    4197    4200    4257       8
    4167    4161    4197       9    4164    4161    4167      10    4164    4161
    4197      11    4161    4167    4170      12    4161    4197    4200      13
    4158    4155    4197      11    4155    4152    4167      12    4155    4197
    4200      13    4155    4197    4161      14    4152    4155    4158      10
    4152    4155    4197       9    4152    4167    4161      12    4152    4167
    4170       5    4149    4152    4155      12    4149    4152    4167       5
    4146    4143    4170       5    4146    4149    4152       5    4143    4146
    4149       5    4143    4170    4167       5    4140    4137    4173       6
    4140    4143    4146       6    4140    4143    4170       6    4137    4140
    4143       7    4137    4173    4176       5    4134    4137    4140       6
    4134    4137    4173       5    4131    4128    4176       5    4131    4134
    4137       5    4128    4131    4134       5    4128    4176    4173       5
    4125    4122    4128      10    4122    4128    4131      12    4122    4128
    4176      12    4119    4176    4173      12    4119    4176    4128      12
    4119    4071    4122      14    4116    4119    4176      10    4071    4068
    4074       8    4071    4119    4116      11    4071    4119    4176       9
    4071    4122    4125      11    4071    4122    4128       9    4068    4071
    4119      13    4068    4071    4122      13    4068    4074    4077       5
    4065    4068    4071       8    4065    4068    4074       5    4062    4059
    4077       5    4062    4065    4068       5    4059    4062    4065       5
    4059    4077    4074       5    4056    4053    4080       6    4056    4059
    4062       6    4056    4059    4077       6    4053    4056    4059       7
    4053    4080    4083       5    4050    4053    4056       6    4050    4053
    4080       5    4047    4044    4083       5    4047    4050    4053       5
    4044    4047    4050       5    4044    4083    4080       5    4041    4044
    4047       3    4041    4044    4083       3    6690    6687    6693       3
    6687    6693    6696       5    6684    6687    6690       3    6684    6687
    6693       5    6681    6678    6696       5    6681    6684    6687       5
    6678    6681    6684       5    6678    6696    6693       5    6675    6672
    6699       6    6675    6678    6681       6    6675    6678    6696       6
    6672    6675    6678       7    6672    6699    6702       5    6669    6672
    6675       6    6669    6672    6699       5    6666    6663    6702       5
    6666    6669    6672       5    6663    6666    6669       5    6663    6702
    6699       5    6660    6663    6666       8    6660    6663    6702       8
    6630    6624    6660       9    6627    6624    6630      10    6627    6624
    6660      11    6624    6630    6633      12    6624    6660    6663      13
    6621    6618    6660      11    6618    6615    6630      12    6618    6660
    6663      13    6618    6660    6624      14    6615    6618    6621      10
    6615    6618    6660       9    6615    6630    6624      12    6615    6630
    6633       5    6612    6615    6618      12    6612    6615    6630       5
    6609    6606    6633       5    6609    6612    6615       5    6606    6609
    6612       5    6606    6633    6630       5    6603    6600    6636       6
    6603    6606    6609       6    6603    6606    6633       6    6600    6603
    6606       7    6600    6636    6639       5    6597    6600    6603       6
    6597    6600    6636       5    6594    6591    6639       5    6594    6597
    6600       5    6591    6594    6597       5    6591    6639    6636       5
    6588    6585    6591      10    6585    6591    6594      12    6585    6591
    6639      12    6582    6639    6636      12    6582    6639    6591      12
    6582    6489    6585      14    6579    6582    6639      10    6531    6528
    6534      17    6525    6522    6528      17    6522    6528    6531      17
    6522    6528    6534       5    6519    6522    6525      17    6519    6522
    6528       5    6516    6513    6534       5    6516    6519    6522       5
    6513    6516    6519       5    6513    6534    6528       5    6510    6513
    6516      21    6510    6513    6534      21    6507    6510    6513      23
    6504    6507    6510      25    6501    6498    6504      27    6498    6495
    6537      12    6498    6504    6507      28    6495    6498    6501      10
    6495    6498    6504      30    6492    6495    6498      12    6492    6495
    6537       5    6489    6486    6492       8    6489    6582    6579      11
    6489    6582    6639       9    6489    6585    6588      11    6489    6585
    6591       9    6486    6489    6582      13    6486    6489    6585      13
    6486    6492    6495       5    6483    6480    6537       5    6483    6486
    6489       8    6483    6486    6492       5    6480    6483    6486       5
    6480    6537    6495       5    6477    6480    6483       8    6477    6480
    6537       8    6447    6441    6477       9    6444    6441    6447      10
    6444    6441    6477      11    6441    6447    6450      12    6441    6477
    6480      13    6438    6435    6477      11    6435    6432    6447      12
    6435    6477    6480      13    6435    6477    6441      14    6432    6435
    6438      10    6432    6435    6477       9    6432    6447    6441      12
    6432    6447    6450       5    6429    6432    6435      12    6429    6432
    6447       5    6426    6423    6450       5    6426    6429    6432       5
    6423    6426    6429       5    6423    6450    6447       5    6420    6417
    6453       6    6420    6423    6426       6    6420    6423    6450       6
    6417    6420    6423       7    6417    6453    6456       5    6414    6417
    6420       6    6414    6417    6453       5    6411    6408    6456       5
    6411    6414    6417       5    6408    6411    6414       5    6408    6456
    6453       5    6405    6402    6408      10    6402    6408    6411      12
    6402    6408    6456      12    6399    6456    6453      12    6399    6456
    6408      12    6399    6357    6402      14    6396    6399    6456      10
    6357    6354    6360       8    6357    6399    6396      11    6357    6399
    6456       9    6357    6402    6405      11    6357    6402    6408       9
    6354    6357    6399      13    6354    6357    6402      13    6354    6360
    6363       5    6351    6354    6357       8    6351    6354    6360       5
    6348    6345    6363       5    6348    6351    6354       5    6345    6348
    6351       5    6345    6363    6360       5    6342    6339    6366       6
    6342    6345    6348       6    6342    6345    6363       6    6339    6342
    6345       7    6339    6366    6369       5    6336    6339    6342       6
    6336    6339    6366       5    6333    6330    6369       5    6333    6336
    6339       5    6330    6333    6336       5    6330    6369    6366       5
    6327    6330    6333       8    6327    6330    6369       8    6297    6291
    6327       9    6294    6291    6297      10    6294    6291    6327      11
    6291    6297    6300      12    6291    6327    6330      13    6288    6285
    6327      11    6285    6282    6297      12    6285    6327    6330      13
    6285    6327    6291      14    6282    6285    6288      10    6282    6285
    6327       9    6282    6297    6291      12    6282    6297    6300       5
    6279    6282    6285      12    6279    6282    6297       5    6276    6273
    6300       5    6276    6279    6282       5    6273    6276    6279       5
    6273    6300    6297       5    6270    6267    6303       6    6270    6273
    6276       6    6270    6273    6300       6    6267    6270    6273       7
    6267    6303    6306       5    6264    6267    6270       6    6264    6267
    6303       5    6261    6258    6306       5    6261    6264    6267       5
    6258    6261    6264       5    6258    6306    6303       5    6255    6252
    6258      10    6252    6258    6261      12    6252    6258    6306      12
    6249    6306    6303      12    6249    6306    6258      12    6249    6207
    6252      14    6246    6249    6306      10    6207    6204    6210       8
    6207    6249    6246      11    6207    6249    6306       9    6207    6252
    6255      11    6207    6252    6258       9    6204    6207    6249      13
    6204    6207    6252      13    6204    6210    6213       5    6201    6204
    6207       8    6201    6204    6210       5    6198    6195    6213       5
    6198    6201    6204       5    6195    6198    6201       5    6195    6213
    6210       5    6192    6189    6216       6    6192    6195    6198       6
    6192    6195    6213       6    6189    6192    6195       7    6189    6216
    6219       5    6186    6189    6192       6    6186    6189    6216       5
    6183    6180    6219       5    6183    6186    6189       5    6180    6183
    6186       5    6180    6219    6216       5    6177    6180    6183       8
    6177    6180    6219       8    6147    6141    6177       9    6144    6141
    6147      10    6144    6141    6177      11    6141    6147    6150      12
    6141    6177    6180      13    6138    6135    6177      11    6135    6132
    6147      12    6135    6177    6180      13    6135    6177    6141      14
    6132    6135    6138      10    6132    6135    6177       9    6132    6147
    6141      12    6132    6147    6150       5    6129    6132    6135      12
    6129    6132    6147       5    6126    6123    6150       5    6126    6129
    6132       5    6123    6126    6129       5    6123    6150    6147       5
    6120    6117    6153       6    6120    6123    6126       6    6120    6123
    6150       6    6117    6120    6123       7    6117    6153    6156       5
    6114    6117    6120       6    6114    6117    6153       5    6111    6108
    6156       5    6111    6114    6117       5    6108    6111    6114       5
    6108    6156    6153       5    6105    6102    6108      10    6102    6108
    6111      12    6102    6108    6156      12    6099    6156    6153      12
    6099    6156    6108      12    6099    6057    6102      14    6096    6099
    6156      10    6057    6054    6060       8    6057    6099    6096      11
    6057    6099    6156       9    6057    6102    6105      11    6057    6102
    6108       9    6054    6057    6099      13    6054    6057    6102      13
    6054    6060    6063       5    6051    6054    6057       8    6051    6054
    6060       5    6048    6045    6063       5    6048    6051    6054       5
    6045    6048    6051       5    6045    6063    6060       5    6042    6039
    6066       6    6042    6045    6048       6    6042    6045    6063       6
    6039    6042    6045       7    6039    6066    6069       5    6036    6039
    6042       6    6036    6039    6066       5    6033    6030    6069       5
    6033    6036    6039       5    6030    6033    6036       5    6030    6069
    6066       5    6027    6030    6033       8    6027    6030    6069       8
    5997    5991    6027       9    5994    5991    5997      10    5994    5991
    6027      11    5991    5997    6000      12    5991    6027    6030      13
    5988    5985    6027      11    5985    5982    5997      12    5985    6027
    6030      13    5985    6027    5991      14    5982    5985    5988      10
    5982    5985    6027       9    5982    5997    5991      12    5982    5997
    6000       5    5979    5982    5985      12    5979    5982    5997       5
    5976    5973    6000       5    5976    5979    5982       5    5973    5976
    5979       5    5973    6000    5997       5    5970    5967    6003       6
    5970    5973    5976       6    5970    5973    6000       6    5967    5970
    5973       7    5967    6003    6006       5    5964    5967    5970       6
    5964    5967    6003       5    5961    5958    6006       5    5961    5964
    5967       5    5958    5961    5964       5    5958    6006    6003       5
    5955    5952    5958      10    5952    5958    5961      12    5952    5958
    6006      12    5949    6006    6003      12    5949    6006    5958      12
    5949    5907    5952      14    5946    5949    6006      10    5907    5904
    5910       8    5907    5949    5946      11    5907    5949    6006       9
    5907    5952    5955      11    5907    5952    5958       9    5904    5907
    5949      13    5904    5907    5952      13    5904    5910    5913       5
    5901    5904    5907       8    5901    5904    5910       5    5898    5895
    5913       5    5898    5901    5904       5    5895    5898    5901       5
    5895    5913    5910       5    5892    5889    5916       6    5892    5895
    5898       6    5892    5895    5913       6    5889    5892    5895       7
    5889    5916    5919       5    5886    5889    5892       6    5886    5889
    5916       5    5883    5880    5919       5    5883    5886    5889       5
    5880    5883    5886       5    5880    5919    5916       5    5877    5880
    5883       8    5877    5880    5919       8    5847    5841    5877       9
    5844    5841    5847      10    5844    5841    5877      11    5841    5847
    5850      12    5841    5877    5880      13    5838    5835    5877      11
    5835    5832    5847      12    5835    5877    5880      13    5835    5877
    5841      14    5832    5835    5838      10    5832    5835    5877       9
    5832    5847    5841      12    5832    5847    5850       5    5829    5832
    5835      12    5829    5832    5847       5    5826    5823    5850       5
    5826    5829    5832       5    5823    5826    5829       5    5823    5850
    5847       5    5820    5817    5853       6    5820    5823    5826       6
    5820    5823    5850       6    5817    5820    5823       7    5817    5853
    5856       5    5814    5817    5820       6    5814    5817    5853       5
    5811    5808    5856       5    5811    5814    5817       5    5808    5811
    5814       5    5808    5856    5853       5    5805    5802    5808      10
    5802    5808    5811      12    5802    5808    5856      12    5799    5856
    5853      12    5799    5856    5808      12    5799    5757    5802      14
    5796    5799    5856      10    5757    5754    5760       8    5757    5799
    5796      11    5757    5799    5856       9    5757    5802    5805      11
    5757    5802    5808       9    5754    5757    5799      13    5754    5757
    5802      13    5754    5760    5763       5    5751    5754    5757       8
    5751    5754    5760       5    5748    5745    5763       5    5748    5751
    5754       5    5745    5748    5751       5    5745    5763    5760       5
    5742    5739    5766       6    5742    5745    5748       6    5742    5745
    5763       6    5739    5742    5745       7    5739    5766    5769       5
    5736    5739    5742       6    5736    5739    5766       5    5733    5730
    5769       5    5733    5736    5739       5    5730    5733    5736       5
    5730    5769    5766       5    5727    5730    5733       8    5727    5730
    5769       8    5697    5691    5727       9    5694    5691    5697      10
    5694    5691    5727      11    5691    5697    5700      12    5691    5727
    5730      13    5688    5685    5727      11    5685    5682    5697      12
    5685    5727    5730      13    5685    5727    5691      14    5682    5685
    5688      10    5682    5685    5727       9    5682    5697    5691      12
    5682    5697    5700       5    5679    5682    5685      12    5679    5682
    5697       5    5676    5673    5700       5    5676    5679    5682       5
    5673    5676    5679       5    5673    5700    5697       5    5670    5667
    5703       6    5670    5673    5676       6    5670    5673    5700       6
    5667    5670    5673       7    5667    5703    5706       5    5664    5667
    5670       6    5664    5667    5703       5    5661    5658    5706       5
    5661    5664    5667       5    5658    5661    5664       5    5658    5706
    5703       5    5655    5652    5658      10    5652    5658    5661      12
    5652    5658    5706      12    5649    5706    5703      12    5649    5706
    5658      12    5649    5556    5652      14    5646    5649    5706      10
    5598    5595    5601      17    5592    5589    5595      17    5589    5595
    5598      17    5589    5595    5601       5    5586    5589    5592      17
    5586    5589    5595       5    5583    5580    5601       5    5583    5586
    5589       5    5580    5583    5586       5    5580    5601    5595       5
    5577    5580    5583      21    5577    5580    5601      21    5574    5577
    5580      23    5571    5574    5577      25    5568    5565    5571      27
    5565    5562    5604      12    5565    5571    5574      28    5562    5565
    5568      10    5562    5565    5571      30    5559    5562    5565      12
    5559    5562    5604       5    5556    5553    5559       8    5556    5649
    5646      11    5556    5649    5706       9    5556    5652    5655      11
    5556    5652    5658       9    5553    5556    5649      13    5553    5556
    5652      13    5553    5559    5562       5    5550    5547    5604       5
    5550    5553    5556       8    5550    5553    5559       5    5547    5550
    5553       5    5547    5604    5562       5    5544    5547    5550       8
    5544    5547    5604       8    5514    5508    5544       9    5511    5508
    5514      10    5511    5508    5544      11    5508    5514    5517      12
    5508    5544    5547      13    5505    5502    5544      11    5502    5499
    5514      12    5502    5544    5547      13    5502    5544    5508      14
    5499    5502    5505      10    5499    5502    5544       9    5499    5514
    5508      12    5499    5514    5517       5    5496    5499    5502      12
    5496    5499    5514       5    5493    5490    5517       5    5493    5496
    5499       5    5490    5493    5496       5    5490    5517    5514       5
    5487    5484    5520       6    5487    5490    5493       6    5487    5490
    5517       6    5484    5487    5490       7    5484    5520    5523       5
    5481    5484    5487       6    5481    5484    5520       5    5478    5475
    5523       5    5478    5481    5484       5    5475    5478    5481       5
    5475    5523    5520       5    5472    5469    5475      10    5469    5475
    5478      12    5469    5475    5523      12    5466    5523    5520      12
    5466    5523    5475      12    5466    5418    5469      14    5463    5466
    5523      10    5418    5415    5421       8    5418    5466    5463      11
    5418    5466    5523       9    5418    5469    5472      11    5418    5469
    5475       9    5415    5418    5466      13    5415    5418    5469      13
    5415    5421    5424       5    5412    5415    5418       8    5412    5415
    5421       5    5409    5406    5424       5    5409    5412    5415       5
    5406    5409    5412       5    5406    5424    5421       5    5403    5400
    5427       6    5403    5406    5409       6    5403    5406    5424       6
    5400    5403    5406       7    5400    5427    5430       5    5397    5400
    5403       6    5397    5400    5427       5    5394    5391    5430       5
    5394    5397    5400       5    5391    5394    5397       5    5391    5430
    5427       5    5388    5391    5394       3    5388    5391    5430       3
    8037    8034    8040       3    8034    8040    8043       5    8031    8034
    8037       3    8031    8034    8040       5    8028    8025    8043       5
    8028    8031    8034       5    8025    8028    8031       5    8025    8043
    8040       5    8022    8019    8046       6    8022    8025    8028       6
    8022    8025    8043       6    8019    8022    8025       7    8019    8046
    8049       5    8016    8019    8022       6    8016    8019    8046       5
    8013    8010    8049       5    8013    8016    8019       5    8010    8013
    8016       5    8010    8049    8046       5    8007    8010    8013       8
    8007    8010    8049       8    7977    7971    8007       9    7974    7971
    7977      10    7974    7971    8007      11    7971    7977    7980      12
    7971    8007    8010      13    7968    7965    8007      11    7965    7962
    7977      12    7965    8007    8010      13    7965    8007    7971      14
    7962    7965    7968      10    7962    7965    8007       9    7962    7977
    7971      12    7962    7977    7980       5    7959    7962    7965      12
    7959    7962    7977       5    7956    7953    7980       5    7956    7959
    7962       5    7953    7956    7959       5    7953    7980    7977       5
    7950    7947    7983       6    7950    7953    7956       6    7950    7953
    7980       6    7947    7950    7953       7    7947    7983    7986       5
    7944    7947    7950       6    7944    7947    7983       5    7941    7938
    7986       5    7941    7944    7947       5    7938    7941    7944       5
    7938    7986    7983       5    7935    7932    7938      10    7932    7938
    7941      12    7932    7938    7986      12    7929    7986    7983      12
    7929    7986    7938      12    7929    7836    7932      14    7926    7929
    7986      10    7878    7875    7881      17    7872    7869    7875      17
    7869    7875    7878      17    7869    7875    7881       5    7866    7869
    7872      17    7866    7869    7875       5    7863    7860    7881       5
    7863    7866    7869       5    7860    7863    7866       5    7860    7881
    7875       5    7857    7860    7863      21    7857    7860    7881      21
    7854    7857    7860      23    7851    7854    7857      25    7848    7845
    7851      27    7845    7842    7884      12    7845    7851    7854      28
    7842    7845    7848      10    7842    7845    7851      30    7839    7842
    7845      12    7839    7842    7884       5    7836    7833    7839       8
    7836    7929    7926      11    7836    7929    7986       9    7836    7932
    7935      11    7836    7932    7938       9    7833    7836    7929      13
    7833    7836    7932      13    7833    7839    7842       5    7830    7827
    7884       5    7830    7833    7836       8    7830    7833    7839       5
    7827    7830    7833       5    7827    7884    7842       5    7824    7827
    7830       8    7824    7827    7884       8    7794    7788    7824       9
    7791    7788    7794      10    7791    7788    7824      11    7788    7794
    7797      12    7788    7824    7827      13    7785    7782    7824      11
    7782    7779    7794      12    7782    7824    7827      13    7782    7824
    7788      14    7779    7782    7785      10    7779    7782    7824       9
    7779    7794    7788      12    7779    7794    7797       5    7776    7779
    7782      12    7776    7779    7794       5    7773    7770    7797       5
    7773    7776    7779       5    7770    7773    7776       5    7770    7797
    7794       5    7767    7764    7800       6    7767    7770    7773       6
    7767    7770    7797       6    7764    7767    7770       7    7764    7800
    7803       5    7761    7764    7767       6    7761    7764    7800       5
    7758    7755    7803       5    7758    7761    7764       5    7755    7758
    7761       5    7755    7803    7800       5    7752    7749    7755      10
    7749    7755    7758      12    7749    7755    7803      12    7746    7803
    7800      12    7746    7803    7755      12    7746    7704    7749      14
    7743    7746    7803      10    7704    7701    7707       8    7704    7746
    7743      11    7704    7746    7803       9    7704    7749    7752      11
    7704    7749    7755       9    7701    7704    7746      13    7701    7704
    7749      13    7701    7707    7710       5    7698    7701    7704       8
    7698    7701    7707       5    7695    7692    7710       5    7695    7698
    7701       5    7692    7695    7698       5    7692    7710    7707       5
    7689    7686    7713       6    7689    7692    7695       6    7689    7692
    7710       6    7686    7689    7692       7    7686    7713    7716       5
    7683    7686    7689       6    7683    7686    7713       5    7680    7677
    7716       5    7680    7683    7686       5    7677    7680    7683       5
    7677    7716    7713       5    7674    7677    7680       8    7674    7677
    7716       8    7644    7638    7674       9    7641    7638    7644      10
    7641    7638    7674      11    7638    7644    7647      12    7638    7674
    7677      13    7635    7632    7674      11    7632    7629    7644      12
    7632    7674    7677      13    7632    7674    7638      14    7629    7632
    7635      10    7629    7632    7674       9    7629    7644    7638      12
    7629    7644    7647       5    7626    7629    7632      12    7626    7629
    7644       5    7623    7620    7647       5    7623    7626    7629       5
    7620    7623    7626       5    7620    7647    7644       5    7617    7614
    7650       6    7617    7620    7623       6    7617    7620    7647       6
    7614    7617    7620       7    7614    7650    7653       5    7611    7614
    7617       6    7611    7614    7650       5    7608    7605    7653       5
    7608    7611    7614       5    7605    7608    7611       5    7605    7653
    7650       5    7602    7599    7605      10    7599    7605    7608      12
    7599    7605    7653      12    7596    7653    7650      12    7596    7653
    7605      12    7596    7554    7599      14    7593    7596    7653      10
    7554    7551    7557       8    7554    7596    7593      11    7554    7596
    7653       9    7554    7599    7602      11    7554    7599    7605       9
    7551    7554    7596      13    7551    7554    7599      13    7551    7557
    7560       5    7548    7551    7554       8    7548    7551    7557       5
    7545    7542    7560       5    7545    7548    7551       5    7542    7545
    7548       5    7542    7560    7557       5    7539    7536    7563       6
    7539    7542    7545       6    7539    7542    7560       6    7536    7539
    7542       7    7536    7563    7566       5    7533    7536    7539       6
    7533    7536    7563       5    7530    7527    7566       5    7530    7533
    7536       5    7527    7530    7533       5    7527    7566    7563       5
    7524    7527    7530       8    7524    7527    7566       8    7494    7488
    7524       9    7491    7488    7494      10    7491    7488    7524      11
    7488    7494    7497      12    7488    7524    7527      13    7485    7482
    7524      11    7482    7479    7494      12    7482    7524    7527      13
    7482    7524    7488      14    7479    7482    7485      10    7479    7482
    7524       9    7479    7494    7488      12    7479    7494    7497       5
    7476    7479    7482      12    7476    7479    7494       5    7473    7470
    7497       5    7473    7476    7479       5    7470    7473    7476       5
    7470    7497    7494       5    7467    7464    7500       6    7467    7470
    7473       6    7467    7470    7497       6    7464    7467    7470       7
    7464    7500    7503       5    7461    7464    7467       6    7461    7464
    7500       5    7458    7455    7503       5    7458    7461    7464       5
    7455    7458    7461       5    7455    7503    7500       5    7452    7449
    7455      10    7449    7455    7458      12    7449    7455    7503      12
    7446    7503    7500      12    7446    7503    7455      12    7446    7404
    7449      14    7443    7446    7503      10    7404    7401    7407       8
    7404    7446    7443      11    7404    7446    7503       9    7404    7449
    7452      11    7404    7449    7455       9    7401    7404    7446      13
    7401    7404    7449      13    7401    7407    7410       5    7398    7401
    7404       8    7398    7401    7407       5    7395    7392    7410       5
    7395    7398    7401       5    7392    7395    7398       5    7392    7410
    7407       5    7389    7386    7413       6    7389    7392    7395       6
    7389    7392    7410       6    7386    7389    7392       7    7386    7413
    7416       5    7383    7386    7389       6    7383    7386    7413       5
    7380    7377    7416       5    7380    7383    7386       5    7377    7380
    7383       5    7377    7416    7413       5    7374    7377    7380       8
    7374    7377    7416       8    7344    7338    7374       9    7341    7338
    7344      10    7341    7338    7374      11    7338    7344    7347      12
    7338    7374    7377      13    7335    7332    7374      11    7332    7329
    7344      12    7332    7374    7377      13    7332    7374    7338      14
    7329    7332    7335      10    7329    7332    7374       9    7329    7344
    7338      12    7329    7344    7347       5    7326    7329    7332      12
    7326    7329    7344       5    7323    7320    7347       5    7323    7326
    7329       5    7320    7323    7326       5    7320    7347    7344       5
    7317    7314    7350       6    7317    7320    7323       6    7317    7320
    7347       6    7314    7317    7320       7    7314    7350    7353       5
    7311    7314    7317       6    7311    7314    7350       5    7308    7305
    7353       5    7308    7311    7314       5    7305    7308    7311       5
    7305    7353    7350       5    7302    7299    7305      10    7299    7305
    7308      12    7299    7305    7353      12    7296    7353    7350      12
    7296    7353    7305      12    7296    7254    7299      14    7293    7296
    7353      10    7254    7251    7257       8    7254    7296    7293      11
    7254    7296    7353       9    7254    7299    7302      11    7254    7299
    7305       9    7251    7254    7296      13    7251    7254    7299      13
    7251    7257    7260       5    7248    7251    7254       8    7248    7251
    7257       5    7245    7242    7260       5    7245    7248    7251       5
    7242    7245    7248       5    7242    7260    7257       5    7239    7236
    7263       6    7239    7242    7245       6    7239    7242    7260       6
    7236    7239    7242       7    7236    7263    7266       5    7233    7236
    7239       6    7233    7236    7263       5    7230    7227    7266       5
    7230    7233    7236       5    7227    7230    7233       5    7227    7266
    7263       5    7224    7227    7230       8    7224    7227    7266       8
    7194    7188    7224       9    7191    7188    7194      10    7191    7188
    7224      11    7188    7194    7197      12    7188    7224    7227      13
    7185    7182    7224      11    7182    7179    7194      12    7182    7224
    7227      13    7182    7224    7188      14    7179    7182    7185      10
    7179    7182    7224       9    7179    7194    7188      12    7179    7194
    7197       5    7176    7179    7182      12    7176    7179    7194       5
    7173    7170    7197       5    7173    7176    7179       5    7170    7173
    7176       5    7170    7197    7194       5    7167    7164    7200       6
    7167    7170    7173       6    7167    7170    7197       6    7164    7167
    7170       7    7164    7200    7203       5    7161    7164    7167       6
    7161    7164    7200       5    7158    7155    7203       5    7158    7161
    7164       5    7155    7158    7161       5    7155    7203    7200       5
    7152    7149    7155      10    7149    7155    7158      12    7149    7155
    7203      12    7146    7203    7200      12    7146    7203    7155      12
    7146    7104    7149      14    7143    7146    7203      10    7104    7101
    7107       8    7104    7146    7143      11    7104    7146    7203       9
    7104    7149    7152      11    7104    7149    7155       9    7101    7104
    7146      13    7101    7104    7149      13    7101    7107    7110       5
    7098    7101    7104       8    7098    7101    7107       5    7095    7092
    7110       5    7095    7098    7101       5    7092    7095    7098       5
    7092    7110    7107       5    7089    7086    7113       6    7089    7092
    7095       6    7089    7092    7110       6    7086    7089    7092       7
    7086    7113    7116       5    7083    7086    7089       6    7083    7086
    7113       5    7080    7077    7116       5    7080    7083    7086       5
    7077    7080    7083       5    7077    7116    7113       5    7074    7077
    7080       8    7074    7077    7116       8    7044    7038    7074       9
    7041    7038    7044      10    7041    7038    7074      11    7038    7044
    7047      12    7038    7074    7077      13    7035    7032    7074      11
    7032    7029    7044      12    7032    7074    7077      13    7032    7074
    7038      14    7029    7032    7035      10    7029    7032    7074       9
    7029    7044    7038      12    7029    7044    7047       5    7026    7029
    7032      12    7026    7029    7044       5    7023    7020    7047       5
    7023    7026    7029       5    7020    7023    7026       5    7020    7047
    7044       5    7017    7014    7050       6    7017    7020    7023       6
    7017    7020    7047       6    7014    7017    7020       7    7014    7050
    7053       5    7011    7014    7017       6    7011    7014    7050       5
    7008    7005    7053       5    7008    7011    7014       5    7005    7008
    7011       5    7005    7053    7050       5    7002    6999    7005      10
    6999    7005    7008      12    6999    7005    7053      12    6996    7053
    7050      12    6996    7053    7005      12    6996    6903    6999      14
    6993    6996    7053      10    6945    6942    6948      17    6939    6936
    6942      17    6936    6942    6945      17    6936    6942    6948       5
    6933    6936    6939      17    6933    6936    6942       5    6930    6927
    6948       5    6930    6933    6936       5    6927    6930    6933       5
    6927    6948    6942       5    6924    6927    6930      21    6924    6927
    6948      21    6921    6924    6927      23    6918    6921    6924      25
    6915    6912    6918      27    6912    6909    6951      12    6912    6918
    6921      28    6909    6912    6915      10    6909    6912    6918      30
    6906    6909    6912      12    6906    6909    6951       5    6903    6900
    6906       8    6903    6996    6993      11    6903    6996    7053       9
    6903    6999    7002      11    6903    6999    7005       9    6900    6903
    6996      13    6900    6903    6999      13    6900    6906    6909       5
    6897    6894    6951       5    6897    6900    6903       8    6897    6900
    6906       5    6894    6897    6900       5    6894    6951    6909       5
    6891    6894    6897       8    6891    6894    6951       8    6861    6855
    6891       9    6858    6855    6861      10    6858    6855    6891      11
    6855    6861    6864      12    6855    6891    6894      13    6852    6849
    6891      11    6849    6846    6861      12    6849    6891    6894      13
    6849    6891    6855      14    6846    6849    6852      10    6846    6849
    6891       9    6846    6861    6855      12    6846    6861    6864       5
    6843    6846    6849      12    6843    6846    6861       5    6840    6837
    6864       5    6840    6843    6846       5    6837    6840    6843       5
    6837    6864    6861       5    6834    6831    6867       6    6834    6837
    6840       6    6834    6837    6864       6    6831    6834    6837       7
    6831    6867    6870       5    6828    6831    6834       6    6828    6831
    6867       5    6825    6822    6870       5    6825    6828    6831       5
    6822    6825    6828       5    6822    6870    6867       5    6819    6816
    6822      10    6816    6822    6825      12    6816    6822    6870      12
    6813    6870    6867      12    6813    6870    6822      12    6813    6765
    6816      14    6810    6813    6870      10    6765    6762    6768       8
    6765    6813    6810      11    6765    6813    6870       9    6765    6816
    6819      11    6765    6816    6822       9    6762    6765    6813      13
    6762    6765    6816      13    6762    6768    6771       5    6759    6762
    6765       8    6759    6762    6768       5    6756    6753    6771       5
    6756    6759    6762       5    6753    6756    6759       5    6753    6771
    6768       5    6750    6747    6774       6    6750    6753    6756       6
    6750    6753    6771       6    6747    6750    6753       7    6747    6774
    6777       5    6744    6747    6750       6    6744    6747    6774       5
    6741    6738    6777       5    6741    6744    6747       5    6738    6741
    6744       5    6738    6777    6774       5    6735    6738    6741       3
    6735    6738    6777       3
%FLAG DIHEDRALS_INC_HYDROGEN                                                    
%FORMAT(10I8)                                                                   
    1341    1311    1314    1344       1    1335    1305    1308    1338       1
    1323    1293    1296    1326       1    1317    1278    1281    1320       1
    1314    1275    1278    1317       1    1311    1284    1281    1320       1
    1308    1290    1293    1323       1    1305    1299    1296    1326       1
    1305    1299    1302    1329       2    1305    1299    1302    1332       2
    1302    1299    1296    1326       1    1302    1299    1305    1335       1
    1299    1296    1293    1323       1    1299    1305    1308    1338       1
    1296    1299    1302    1329       2    1296    1299    1302    1332       2
    1296    1299    1305    1335       1    1293    1290    1308    1338       1
    1290    1293    1296    1326       1    1290    1308    1305    1335       1
    1287    1284    1281    1320       1    1287    1284    1311    1341       1
    1287    1290    1293    1323       1    1287    1290    1308    1338       1
    1284    1281    1278    1317       1    1284    1311    1314    1344       1
    1281    1284    1311    1341       1    1278    1275    1314    1344       1
    1275    1278    1281    1320       1    1275    1314    1311    1341       1
    1272    1275    1278    1317       1    1272    1275    1314    1344       1
    1260    1221    1224    1263       1    1254    1206    1209    1257       1
    1251    1203    1206    1254       1    1248    1212    1209    1257       1
    1245    1218    1221    1260       1    1242    1227    1224    1263       1
    1236    1242    1245    1266       1    1230    1227    1224    1263       1
    1227    1224    1221    1260       1    1227    1242    1245    1266       1
    1221    1218    1245    1266       1    1218    1221    1224    1263       1
    1215    1212    1209    1257       1    1215    1212    1248    1269       1
    1215    1218    1221    1260       1    1215    1218    1245    1266       1
    1212    1209    1206    1254       1    1209    1212    1248    1269       1
    1203    1206    1209    1257       1    1203    1251    1248    1269       1
    1197    1203    1206    1254       1    1194    1251    1248    1269       1
    1173    1128    1131    1176       1    1164    1119    1122    1167       8
    1164    1119    1122    1170       8    1161    1119    1122    1167       8
    1161    1119    1122    1170       8    1158    1116    1119    1161       9
    1158    1116    1119    1164       9    1149    1107    1104    1155       1
    1149    1092    1095    1152       1    1146    1140    1143    1182      10
    1146    1125    1122    1167      11    1146    1125    1122    1170      11
    1146    1125    1128    1173       1    1143    1140    1146    1185       1
    1140    1134    1131    1176       1    1140    1134    1137    1179      10
    1137    1134    1131    1176       1    1134    1131    1128    1173       1
    1134    1140    1143    1182      10    1134    1140    1146    1185       1
    1131    1134    1137    1179      10    1128    1125    1122    1167      11
    1128    1125    1122    1170      11    1128    1125    1146    1185       1
    1125    1122    1119    1161       8    1125    1122    1119    1164       8
    1125    1128    1131    1176       1    1122    1119    1116    1158       9
    1122    1125    1128    1173       1    1122    1125    1146    1185       1
    1116    1119    1122    1167       8    1116    1119    1122    1170       8
    1113    1110    1116    1158      14    1113    1110   -1116    1158       5
    1110    1107    1104    1155       1    1110    1107    1149    1188       1
    1110    1116    1119    1161      11    1110    1116    1119    1164      11
    1107    1110    1116    1158       5    1104    1098    1095    1152       1
    1104    1107    1149    1188       1    1101    1098    1095    1152       1
    1101    1098    1104    1155       1    1095    1092    1149    1188       1
    1095    1098    1104    1155       1    1089    1092    1095    1152       1
    1089    1092    1149    1188       1    1077    1038    1041    1080       1
    1071    1023    1026    1074       1    1068    1020    1023    1071       1
    1065    1029    1026    1074       1    1062    1035    1038    1077       1
    1059    1044    1041    1080       1    1053    1059    1062    1083       1
    1047    1044    1041    1080       1    1044    1041    1038    1077       1
    1044    1059    1062    1083       1    1038    1035    1062    1083       1
    1035    1038    1041    1080       1    1032    1029    1026    1074       1
    1032    1029    1065    1086       1    1032    1035    1038    1077       1
    1032    1035    1062    1083       1    1029    1026    1023    1071       1
    1026    1029    1065    1086       1    1020    1023    1026    1074       1
    1020    1068    1065    1086       1    1014    1020    1023    1071       1
    1011    1068    1065    1086       1    1002     978     981    1005       1
     996     972     975     999       1     990     960     963     993       1
     984     945     948     987       1     981     942     945     984       1
     978     951     948     987       1     975     957     960     990       1
     972     966     963     993       1     969     966     963     993       1
     969     966     972     996       1     966     963     960     990       1
     966     972     975     999       1     963     966     972     996       1
     960     957     975     999       1     957     960     963     993       1
     957     975     972     996       1     954     951     948     987       1
     954     951     978    1002       1     954     957     960     990       1
     954     957     975     999       1     951     948     945     984       1
     951     978     981    1005       1     948     951     978    1002       1
     945     942     981    1005       1     942     945     948     987       1
     942     981     978    1002       1     939     942     945     984       1
     939     942     981    1005       1     927     888     891     930       1
     921     873     876     924       1     918     870     873     921       1
     915     879     876     924       1     912     885     888     927       1
     909     894     891     930       1     903     909     912     933       1
     897     894     891     930       1     894     891     888     927       1
     894     909     912     933       1     888     885     912     933       1
     885     888     891     930       1     882     879     876     924       1
     882     879     915     936       1     882     885     888     927       1
     882     885     912     933       1     879     876     873     921       1
     876     879     915     936       1     870     873     876     924       1
     870     918     915     936       1     864     870     873     921       1
     861     918     915     936       1     852     828     831     855       1
     846     822     825     849       1     840     810     813     843       1
     834     795     798     837       1     831     792     795     834       1
     828     801     798     837       1     825     807     810     840       1
     822     816     813     843       1     819     816     813     843       1
     819     816     822     846       1     816     813     810     840       1
     816     822     825     849       1     813     816     822     846       1
     810     807     825     849       1     807     810     813     843       1
     807     825     822     846       1     804     801     798     837       1
     804     801     828     852       1     804     807     810     840       1
     804     807     825     849       1     801     798     795     834       1
     801     828     831     855       1     798     801     828     852       1
     795     792     831     855       1     792     795     798     837       1
     792     831     828     852       1     789     792     795     834       1
     789     792     831     855       1     777     738     741     780       1
     771     723     726     774       1     768     720     723     771       1
     765     729     726     774       1     762     735     738     777       1
     759     744     741     780       1     753     759     762     783       1
     747     744     741     780       1     744     741     738     777       1
     744     759     762     783       1     738     735     762     783       1
     735     738     741     780       1     732     729     726     774       1
     732     729     765     786       1     732     735     738     777       1
     732     735     762     783       1     729     726     723     771       1
     726     729     765     786       1     720     723     726     774       1
     720     768     765     786       1     714     720     723     771       1
     711     768     765     786       1     702     678     681     705       1
     696     672     675     699       1     690     660     663     693       1
     684     645     648     687       1     681     642     645     684       1
     678     651     648     687       1     675     657     660     690       1
     672     666     663     693       1     669     666     663     693       1
     669     666     672     696       1     666     663     660     690       1
     666     672     675     699       1     663     666     672     696       1
     660     657     675     699       1     657     660     663     693       1
     657     675     672     696       1     654     651     648     687       1
     654     651     678     702       1     654     657     660     690       1
     654     657     675     699       1     651     648     645     684       1
     651     678     681     705       1     648     651     678     702       1
     645     642     681     705       1     642     645     648     687       1
     642     681     678     702       1     639     642     645     684       1
     639     642     681     705       1     627     588     591     630       1
     621     573     576     624       1     618     570     573     621       1
     615     579     576     624       1     612     585     588     627       1
     609     594     591     630       1     603     609     612     633       1
     597     594     591     630       1     594     591     588     627       1
     594     609     612     633       1     588     585     612     633       1
     585     588     591     630       1     582     579     576     624       1
     582     579     615     636       1     582     585     588     627       1
     582     585     612     633       1     579     576     573     621       1
     576     579     615     636       1     570     573     576     624       1
     570     618     615     636       1     564     570     573     621       1
     561     618     615     636       1     552     528     531     555       1
     546     522     525     549       1     540     510     513     543       1
     534     495     498     537       1     531     492     495     534       1
     528     501     498     537       1     525     507     510     540       1
     522     516     513     543       1     519     516     513     543       1
     519     516     522     546       1     516     513     510     540       1
     516     522     525     549       1     513     516     522     546       1
     510     507     525     549       1     507     510     513     543       1
     507     525     522     546       1     504     501     498     537       1
     504     501     528     552       1     504     507     510     540       1
     504     507     525     549       1     501     498     495     534       1
     501     528     531     555       1     498     501     528     552       1
     495     492     531     555       1     492     495     498     537       1
     492     531     528     552       1     489     492     495     534       1
     489     492     531     555       1     477     438     441     480       1
     471     423     426     474       1     468     420     423     471       1
     465     429     426     474       1     462     435     438     477       1
     459     444     441     480       1     453     459     462     483       1
     447     444     441     480       1     444     441     438     477       1
     444     459     462     483       1     438     435     462     483       1
     435     438     441     480       1     432     429     426     474       1
     432     429     465     486       1     432     435     438     477       1
     432     435     462     483       1     429     426     423     471       1
     426     429     465     486       1     420     423     426     474       1
     420     468     465     486       1     414     420     423     471       1
     411     468     465     486       1     402     378     381     405       1
     396     372     375     399       1     390     360     363     393       1
     384     345     348     387       1     381     342     345     384       1
     378     351     348     387       1     375     357     360     390       1
     372     366     363     393       1     369     366     363     393       1
     369     366     372     396       1     366     363     360     390       1
     366     372     375     399       1     363     366     372     396       1
     360     357     375     399       1     357     360     363     393       1
     357     375     372     396       1     354     351     348     387       1
     354     351     378     402       1     354     357     360     390       1
     354     357     375     399       1     351     348     345     384       1
     351     378     381     405       1     348     351     378     402       1
     345     342     381     405       1     342     345     348     387       1
     342     381     378     402       1     339     342     345     384       1
     339     342     381     405       1     327     288     291     330       1
     321     273     276     324       1     318     270     273     321       1
     315     279     276     324       1     312     285     288     327       1
     309     294     291     330       1     303     309     312     333       1
     297     294     291     330       1     294     291     288     327       1
     294     309     312     333       1     288     285     312     333       1
     285     288     291     330       1     282     279     276     324       1
     282     279     315     336       1     282     285     288     327       1
     282     285     312     333       1     279     276     273     321       1
     276     279     315     336       1     270     273     276     324       1
     270     318     315     336       1     264     270     273     321       1
     261     318     315     336       1     240     195     198     243       1
     231     186     189     234       8     231     186     189     237       8
     228     186     189     234       8     228     186     189     237       8
     225     183     186     228       9     225     183     186     231       9
     216     174     171     222       1     216     159     162     219       1
     213     207     210     249      10     213     192     189     234      11
     213     192     189     237      11     213     192     195     240       1
     210     207     213     252       1     207     201     198     243       1
     207     201     204     246      10     204     201     198     243       1
     201     198     195     240       1     201     207     210     249      10
     201     207     213     252       1     198     201     204     246      10
     195     192     189     234      11     195     192     189     237      11
     195     192     213     252       1     192     189     186     228       8
     192     189     186     231       8     192     195     198     243       1
     189     186     183     225       9     189     192     195     240       1
     189     192     213     252       1     183     186     189     234       8
     183     186     189     237       8     180     177     183     225      14
     180     177    -183     225       5     177     174     171     222       1
     177     174     216     255       1     177     183     186     228      11
     177     183     186     231      11     174     177     183     225       5
     171     165     162     219       1     171     174     216     255       1
     168     165     162     219       1     168     165     171     222       1
     162     159     216     255       1     162     165     171     222       1
     156     159     162     219       1     156     159     216     255       1
     144     105     108     147       1     138      90      93     141       1
     135      87      90     138       1     132      96      93     141       1
     129     102     105     144       1     126     111     108     147       1
     120     126     129     150       1     114     111     108     147       1
     111     108     105     144       1     111     126     129     150       1
     105     102     129     150       1     102     105     108     147       1
      99      96      93     141       1      99      96     132     153       1
      99     102     105     144       1      99     102     129     150       1
      96      93      90     138       1      93      96     132     153       1
      87      90      93     141       1      87     135     132     153       1
      81      87      90     138       1      78     135     132     153       1
      69      39      42      72       1      63      33      36      66       1
      57      21      24      60       1      51       6       9      54       1
      45       0       3      42       2      48       0       3      42       2
      42       3       6      51       1      39      12       9      54       1
      36      18      21      57       1      33      27      24      60       1
      30      27      24      60       1      30      27      33      63       1
      27      24      21      57       1      27      33      36      66       1
      24      27      33      63       1      21      18      36      66       1
      18      21      24      60       1      18      36      33      63       1
      15      12       9      54       1      15      12      39      69       1
      15      18      21      57       1      15      18      36      66       1
      12       9       6      51       1      12      39      42      72       1
       9      12      39      69       1      45       0       3       6       2
      48       0       3       6       2       6       3      42      72       1
       3       6       9      54       1       3      42      39      69       1
       0       3       6      51       1       0       3      42      72       1
    2688    2658    2661    2691       1    2682    2652    2655    2685       1
    2670    2640    2643    2673       1    2664    2625    2628    2667       1
    2661    2622    2625    2664       1    2658    2631    2628    2667       1
    2655    2637    2640    2670       1    2652    2646    2643    2673       1
    2652    2646    2649    2676       2    2652    2646    2649    2679       2
    2649    2646    2643    2673       1    2649    2646    2652    2682       1
    2646    2643    2640    2670       1    2646    2652    2655    2685       1
    2643    2646    2649    2676       2    2643    2646    2649    2679       2
    2643    2646    2652    2682       1    2640    2637    2655    2685       1
    2637    2640    2643    2673       1    2637    2655    2652    2682       1
    2634    2631    2628    2667       1    2634    2631    2658    2688       1
    2634    2637    2640    2670       1    2634    2637    2655    2685       1
    2631    2628    2625    2664       1    2631    2658    2661    2691       1
    2628    2631    2658    2688       1    2625    2622    2661    2691       1
    2622    2625    2628    2667       1    2622    2661    2658    2688       1
    2619    2622    2625    2664       1    2619    2622    2661    2691       1
    2607    2568    2571    2610       1    2601    2553    2556    2604       1
    2598    2550    2553    2601       1    2595    2559    2556    2604       1
    2592    2565    2568    2607       1    2589    2574    2571    2610       1
    2583    2589    2592    2613       1    2577    2574    2571    2610       1
    2574    2571    2568    2607       1    2574    2589    2592    2613       1
    2568    2565    2592    2613       1    2565    2568    2571    2610       1
    2562    2559    2556    2604       1    2562    2559    2595    2616       1
    2562    2565    2568    2607       1    2562    2565    2592    2613       1
    2559    2556    2553    2601       1    2556    2559    2595    2616       1
    2550    2553    2556    2604       1    2550    2598    2595    2616       1
    2544    2550    2553    2601       1    2541    2598    2595    2616       1
    2520    2475    2478    2523       1    2511    2466    2469    2514       8
    2511    2466    2469    2517       8    2508    2466    2469    2514       8
    2508    2466    2469    2517       8    2505    2463    2466    2508       9
    2505    2463    2466    2511       9    2496    2454    2451    2502       1
    2496    2439    2442    2499       1    2493    2487    2490    2529      10
    2493    2472    2469    2514      11    2493    2472    2469    2517      11
    2493    2472    2475    2520       1    2490    2487    2493    2532       1
    2487    2481    2478    2523       1    2487    2481    2484    2526      10
    2484    2481    2478    2523       1    2481    2478    2475    2520       1
    2481    2487    2490    2529      10    2481    2487    2493    2532       1
    2478    2481    2484    2526      10    2475    2472    2469    2514      11
    2475    2472    2469    2517      11    2475    2472    2493    2532       1
    2472    2469    2466    2508       8    2472    2469    2466    2511       8
    2472    2475    2478    2523       1    2469    2466    2463    2505       9
    2469    2472    2475    2520       1    2469    2472    2493    2532       1
    2463    2466    2469    2514       8    2463    2466    2469    2517       8
    2460    2457    2463    2505      14    2460    2457   -2463    2505       5
    2457    2454    2451    2502       1    2457    2454    2496    2535       1
    2457    2463    2466    2508      11    2457    2463    2466    2511      11
    2454    2457    2463    2505       5    2451    2445    2442    2499       1
    2451    2454    2496    2535       1    2448    2445    2442    2499       1
    2448    2445    2451    2502       1    2442    2439    2496    2535       1
    2442    2445    2451    2502       1    2436    2439    2442    2499       1
    2436    2439    2496    2535       1    2424    2385    2388    2427       1
    2418    2370    2373    2421       1    2415    2367    2370    2418       1
    2412    2376    2373    2421       1    2409    2382    2385    2424       1
    2406    2391    2388    2427       1    2400    2406    2409    2430       1
    2394    2391    2388    2427       1    2391    2388    2385    2424       1
    2391    2406    2409    2430       1    2385    2382    2409    2430       1
    2382    2385    2388    2427       1    2379    2376    2373    2421       1
    2379    2376    2412    2433       1    2379    2382    2385    2424       1
    2379    2382    2409    2430       1    2376    2373    2370    2418       1
    2373    2376    2412    2433       1    2367    2370    2373    2421       1
    2367    2415    2412    2433       1    2361    2367    2370    2418       1
    2358    2415    2412    2433       1    2349    2325    2328    2352       1
    2343    2319    2322    2346       1    2337    2307    2310    2340       1
    2331    2292    2295    2334       1    2328    2289    2292    2331       1
    2325    2298    2295    2334       1    2322    2304    2307    2337       1
    2319    2313    2310    2340       1    2316    2313    2310    2340       1
    2316    2313    2319    2343       1    2313    2310    2307    2337       1
    2313    2319    2322    2346       1    2310    2313    2319    2343       1
    2307    2304    2322    2346       1    2304    2307    2310    2340       1
    2304    2322    2319    2343       1    2301    2298    2295    2334       1
    2301    2298    2325    2349       1    2301    2304    2307    2337       1
    2301    2304    2322    2346       1    2298    2295    2292    2331       1
    2298    2325    2328    2352       1    2295    2298    2325    2349       1
    2292    2289    2328    2352       1    2289    2292    2295    2334       1
    2289    2328    2325    2349       1    2286    2289    2292    2331       1
    2286    2289    2328    2352       1    2274    2235    2238    2277       1
    2268    2220    2223    2271       1    2265    2217    2220    2268       1
    2262    2226    2223    2271       1    2259    2232    2235    2274       1
    2256    2241    2238    2277       1    2250    2256    2259    2280       1
    2244    2241    2238    2277       1    2241    2238    2235    2274       1
    2241    2256    2259    2280       1    2235    2232    2259    2280       1
    2232    2235    2238    2277       1    2229    2226    2223    2271       1
    2229    2226    2262    2283       1    2229    2232    2235    2274       1
    2229    2232    2259    2280       1    2226    2223    2220    2268       1
    2223    2226    2262    2283       1    2217    2220    2223    2271       1
    2217    2265    2262    2283       1    2211    2217    2220    2268       1
    2208    2265    2262    2283       1    2199    2175    2178    2202       1
    2193    2169    2172    2196       1    2187    2157    2160    2190       1
    2181    2142    2145    2184       1    2178    2139    2142    2181       1
    2175    2148    2145    2184       1    2172    2154    2157    2187       1
    2169    2163    2160    2190       1    2166    2163    2160    2190       1
    2166    2163    2169    2193       1    2163    2160    2157    2187       1
    2163    2169    2172    2196       1    2160    2163    2169    2193       1
    2157    2154    2172    2196       1    2154    2157    2160    2190       1
    2154    2172    2169    2193       1    2151    2148    2145    2184       1
    2151    2148    2175    2199       1    2151    2154    2157    2187       1
    2151    2154    2172    2196       1    2148    2145    2142    2181       1
    2148    2175    2178    2202       1    2145    2148    2175    2199       1
    2142    2139    2178    2202       1    2139    2142    2145    2184       1
    2139    2178    2175    2199       1    2136    2139    2142    2181       1
    2136    2139    2178    2202       1    2124    2085    2088    2127       1
    2118    2070    2073    2121       1    2115    2067    2070    2118       1
    2112    2076    2073    2121       1    2109    2082    2085    2124       1
    2106    2091    2088    2127       1    2100    2106    2109    2130       1
    2094    2091    2088    2127       1    2091    2088    2085    2124       1
    2091    2106    2109    2130       1    2085    2082    2109    2130       1
    2082    2085    2088    2127       1    2079    2076    2073    2121       1
    2079    2076    2112    2133       1    2079    2082    2085    2124       1
    2079    2082    2109    2130       1    2076    2073    2070    2118       1
    2073    2076    2112    2133       1    2067    2070    2073    2121       1
    2067    2115    2112    2133       1    2061    2067    2070    2118       1
    2058    2115    2112    2133       1    2049    2025    2028    2052       1
    2043    2019    2022    2046       1    2037    2007    2010    2040       1
    2031    1992    1995    2034       1    2028    1989    1992    2031       1
    2025    1998    1995    2034       1    2022    2004    2007    2037       1
    2019    2013    2010    2040       1    2016    2013    2010    2040       1
    2016    2013    2019    2043       1    2013    2010    2007    2037       1
    2013    2019    2022    2046       1    2010    2013    2019    2043       1
    2007    2004    2022    2046       1    2004    2007    2010    2040       1
    2004    2022    2019    2043       1    2001    1998    1995    2034       1
    2001    1998    2025    2049       1    2001    2004    2007    2037       1
    2001    2004    2022    2046       1    1998    1995    1992    2031       1
    1998    2025    2028    2052       1    1995    1998    2025    2049       1
    1992    1989    2028    2052       1    1989    1992    1995    2034       1
    1989    2028    2025    2049       1    1986    1989    1992    2031       1
    1986    1989    2028    2052       1    1974    1935    1938    1977       1
    1968    1920    1923    1971       1    1965    1917    1920    1968       1
    1962    1926    1923    1971       1    1959    1932    1935    1974       1
    1956    1941    1938    1977       1    1950    1956    1959    1980       1
    1944    1941    1938    1977       1    1941    1938    1935    1974       1
    1941    1956    1959    1980       1    1935    1932    1959    1980       1
    1932    1935    1938    1977       1    1929    1926    1923    1971       1
    1929    1926    1962    1983       1    1929    1932    1935    1974       1
    1929    1932    1959    1980       1    1926    1923    1920    1968       1
    1923    1926    1962    1983       1    1917    1920    1923    1971       1
    1917    1965    1962    1983       1    1911    1917    1920    1968       1
    1908    1965    1962    1983       1    1899    1875    1878    1902       1
    1893    1869    1872    1896       1    1887    1857    1860    1890       1
    1881    1842    1845    1884       1    1878    1839    1842    1881       1
    1875    1848    1845    1884       1    1872    1854    1857    1887       1
    1869    1863    1860    1890       1    1866    1863    1860    1890       1
    1866    1863    1869    1893       1    1863    1860    1857    1887       1
    1863    1869    1872    1896       1    1860    1863    1869    1893       1
    1857    1854    1872    1896       1    1854    1857    1860    1890       1
    1854    1872    1869    1893       1    1851    1848    1845    1884       1
    1851    1848    1875    1899       1    1851    1854    1857    1887       1
    1851    1854    1872    1896       1    1848    1845    1842    1881       1
    1848    1875    1878    1902       1    1845    1848    1875    1899       1
    1842    1839    1878    1902       1    1839    1842    1845    1884       1
    1839    1878    1875    1899       1    1836    1839    1842    1881       1
    1836    1839    1878    1902       1    1824    1785    1788    1827       1
    1818    1770    1773    1821       1    1815    1767    1770    1818       1
    1812    1776    1773    1821       1    1809    1782    1785    1824       1
    1806    1791    1788    1827       1    1800    1806    1809    1830       1
    1794    1791    1788    1827       1    1791    1788    1785    1824       1
    1791    1806    1809    1830       1    1785    1782    1809    1830       1
    1782    1785    1788    1827       1    1779    1776    1773    1821       1
    1779    1776    1812    1833       1    1779    1782    1785    1824       1
    1779    1782    1809    1830       1    1776    1773    1770    1818       1
    1773    1776    1812    1833       1    1767    1770    1773    1821       1
    1767    1815    1812    1833       1    1761    1767    1770    1818       1
    1758    1815    1812    1833       1    1749    1725    1728    1752       1
    1743    1719    1722    1746       1    1737    1707    1710    1740       1
    1731    1692    1695    1734       1    1728    1689    1692    1731       1
    1725    1698    1695    1734       1    1722    1704    1707    1737       1
    1719    1713    1710    1740       1    1716    1713    1710    1740       1
    1716    1713    1719    1743       1    1713    1710    1707    1737       1
    1713    1719    1722    1746       1    1710    1713    1719    1743       1
    1707    1704    1722    1746       1    1704    1707    1710    1740       1
    1704    1722    1719    1743       1    1701    1698    1695    1734       1
    1701    1698    1725    1749       1    1701    1704    1707    1737       1
    1701    1704    1722    1746       1    1698    1695    1692    1731       1
    1698    1725    1728    1752       1    1695    1698    1725    1749       1
    1692    1689    1728    1752       1    1689    1692    1695    1734       1
    1689    1728    1725    1749       1    1686    1689    1692    1731       1
    1686    1689    1728    1752       1    1674    1635    1638    1677       1
    1668    1620    1623    1671       1    1665    1617    1620    1668       1
    1662    1626    1623    1671       1    1659    1632    1635    1674       1
    1656    1641    1638    1677       1    1650    1656    1659    1680       1
    1644    1641    1638    1677       1    1641    1638    1635    1674       1
    1641    1656    1659    1680       1    1635    1632    1659    1680       1
    1632    1635    1638    1677       1    1629    1626    1623    1671       1
    1629    1626    1662    1683       1    1629    1632    1635    1674       1
    1629    1632    1659    1680       1    1626    1623    1620    1668       1
    1623    1626    1662    1683       1    1617    1620    1623    1671       1
    1617    1665    1662    1683       1    1611    1617    1620    1668       1
    1608    1665    1662    1683       1    1587    1542    1545    1590       1
    1578    1533    1536    1581       8    1578    1533    1536    1584       8
    1575    1533    1536    1581       8    1575    1533    1536    1584       8
    1572    1530    1533    1575       9    1572    1530    1533    1578       9
    1563    1521    1518    1569       1    1563    1506    1509    1566       1
    1560    1554    1557    1596      10    1560    1539    1536    1581      11
    1560    1539    1536    1584      11    1560    1539    1542    1587       1
    1557    1554    1560    1599       1    1554    1548    1545    1590       1
    1554    1548    1551    1593      10    1551    1548    1545    1590       1
    1548    1545    1542    1587       1    1548    1554    1557    1596      10
    1548    1554    1560    1599       1    1545    1548    1551    1593      10
    1542    1539    1536    1581      11    1542    1539    1536    1584      11
    1542    1539    1560    1599       1    1539    1536    1533    1575       8
    1539    1536    1533    1578       8    1539    1542    1545    1590       1
    1536    1533    1530    1572       9    1536    1539    1542    1587       1
    1536    1539    1560    1599       1    1530    1533    1536    1581       8
    1530    1533    1536    1584       8    1527    1524    1530    1572      14
    1527    1524   -1530    1572       5    1524    1521    1518    1569       1
    1524    1521    1563    1602       1    1524    1530    1533    1575      11
    1524    1530    1533    1578      11    1521    1524    1530    1572       5
    1518    1512    1509    1566       1    1518    1521    1563    1602       1
    1515    1512    1509    1566       1    1515    1512    1518    1569       1
    1509    1506    1563    1602       1    1509    1512    1518    1569       1
    1503    1506    1509    1566       1    1503    1506    1563    1602       1
    1491    1452    1455    1494       1    1485    1437    1440    1488       1
    1482    1434    1437    1485       1    1479    1443    1440    1488       1
    1476    1449    1452    1491       1    1473    1458    1455    1494       1
    1467    1473    1476    1497       1    1461    1458    1455    1494       1
    1458    1455    1452    1491       1    1458    1473    1476    1497       1
    1452    1449    1476    1497       1    1449    1452    1455    1494       1
    1446    1443    1440    1488       1    1446    1443    1479    1500       1
    1446    1449    1452    1491       1    1446    1449    1476    1497       1
    1443    1440    1437    1485       1    1440    1443    1479    1500       1
    1434    1437    1440    1488       1    1434    1482    1479    1500       1
    1428    1434    1437    1485       1    1425    1482    1479    1500       1
    1416    1386    1389    1419       1    1410    1380    1383    1413       1
    1404    1368    1371    1407       1    1398    1353    1356    1401       1
    1389    1350    1347    1392       2    1389    1350    1347    1395       2
    1389    1350    1353    1398       1    1386    1359    1356    1401       1
    1383    1365    1368    1404       1    1380    1374    1371    1407       1
    1377    1374    1371    1407       1    1377    1374    1380    1410       1
    1374    1371    1368    1404       1    1374    1380    1383    1413       1
    1371    1374    1380    1410       1    1368    1365    1383    1413       1
    1365    1368    1371    1407       1    1365    1383    1380    1410       1
    1362    1359    1356    1401       1    1362    1359    1386    1416       1
    1362    1365    1368    1404       1    1362    1365    1383    1413       1
    1359    1356    1353    1398       1    1359    1386    1389    1419       1
    1356    1359    1386    1416       1    1353    1350    1347    1392       2
    1353    1350    1347    1395       2    1353    1350    1389    1419       1
    1350    1353    1356    1401       1    1350    1389    1386    1416       1
    1347    1350    1353    1398       1    1347    1350    1389    1419       1
    4035    4005    4008    4038       1    4029    3999    4002    4032       1
    4017    3987    3990    4020       1    4011    3972    3975    4014       1
    4008    3969    3972    4011       1    4005    3978    3975    4014       1
    4002    3984    3987    4017       1    3999    3993    3990    4020       1
    3999    3993    3996    4023       2    3999    3993    3996    4026       2
    3996    3993    3990    4020       1    3996    3993    3999    4029       1
    3993    3990    3987    4017       1    3993    3999    4002    4032       1
    3990    3993    3996    4023       2    3990    3993    3996    4026       2
    3990    3993    3999    4029       1    3987    3984    4002    4032       1
    3984    3987    3990    4020       1    3984    4002    3999    4029       1
    3981    3978    3975    4014       1    3981    3978    4005    4035       1
    3981    3984    3987    4017       1    3981    3984    4002    4032       1
    3978    3975    3972    4011       1    3978    4005    4008    4038       1
    3975    3978    4005    4035       1    3972    3969    4008    4038       1
    3969    3972    3975    4014       1    3969    4008    4005    4035       1
    3966    3969    3972    4011       1    3966    3969    4008    4038       1
    3954    3915    3918    3957       1    3948    3900    3903    3951       1
    3945    3897    3900    3948       1    3942    3906    3903    3951       1
    3939    3912    3915    3954       1    3936    3921    3918    3957       1
    3930    3936    3939    3960       1    3924    3921    3918    3957       1
    3921    3918    3915    3954       1    3921    3936    3939    3960       1
    3915    3912    3939    3960       1    3912    3915    3918    3957       1
    3909    3906    3903    3951       1    3909    3906    3942    3963       1
    3909    3912    3915    3954       1    3909    3912    3939    3960       1
    3906    3903    3900    3948       1    3903    3906    3942    3963       1
    3897    3900    3903    3951       1    3897    3945    3942    3963       1
    3891    3897    3900    3948       1    3888    3945    3942    3963       1
    3867    3822    3825    3870       1    3858    3813    3816    3861       8
    3858    3813    3816    3864       8    3855    3813    3816    3861       8
    3855    3813    3816    3864       8    3852    3810    3813    3855       9
    3852    3810    3813    3858       9    3843    3801    3798    3849       1
    3843    3786    3789    3846       1    3840    3834    3837    3876      10
    3840    3819    3816    3861      11    3840    3819    3816    3864      11
    3840    3819    3822    3867       1    3837    3834    3840    3879       1
    3834    3828    3825    3870       1    3834    3828    3831    3873      10
    3831    3828    3825    3870       1    3828    3825    3822    3867       1
    3828    3834    3837    3876      10    3828    3834    3840    3879       1
    3825    3828    3831    3873      10    3822    3819    3816    3861      11
    3822    3819    3816    3864      11    3822    3819    3840    3879       1
    3819    3816    3813    3855       8    3819    3816    3813    3858       8
    3819    3822    3825    3870       1    3816    3813    3810    3852       9
    3816    3819    3822    3867       1    3816    3819    3840    3879       1
    3810    3813    3816    3861       8    3810    3813    3816    3864       8
    3807    3804    3810    3852      14    3807    3804   -3810    3852       5
    3804    3801    3798    3849       1    3804    3801    3843    3882       1
    3804    3810    3813    3855      11    3804    3810    3813    3858      11
    3801    3804    3810    3852       5    3798    3792    3789    3846       1
    3798    3801    3843    3882       1    3795    3792    3789    3846       1
    3795    3792    3798    3849       1    3789    3786    3843    3882       1
    3789    3792    3798    3849       1    3783    3786    3789    3846       1
    3783    3786    3843    3882       1    3771    3732    3735    3774       1
    3765    3717    3720    3768       1    3762    3714    3717    3765       1
    3759    3723    3720    3768       1    3756    3729    3732    3771       1
    3753    3738    3735    3774       1    3747    3753    3756    3777       1
    3741    3738    3735    3774       1    3738    3735    3732    3771       1
    3738    3753    3756    3777       1    3732    3729    3756    3777       1
    3729    3732    3735    3774       1    3726    3723    3720    3768       1
    3726    3723    3759    3780       1    3726    3729    3732    3771       1
    3726    3729    3756    3777       1    3723    3720    3717    3765       1
    3720    3723    3759    3780       1    3714    3717    3720    3768       1
    3714    3762    3759    3780       1    3708    3714    3717    3765       1
    3705    3762    3759    3780       1    3696    3672    3675    3699       1
    3690    3666    3669    3693       1    3684    3654    3657    3687       1
    3678    3639    3642    3681       1    3675    3636    3639    3678       1
    3672    3645    3642    3681       1    3669    3651    3654    3684       1
    3666    3660    3657    3687       1    3663    3660    3657    3687       1
    3663    3660    3666    3690       1    3660    3657    3654    3684       1
    3660    3666    3669    3693       1    3657    3660    3666    3690       1
    3654    3651    3669    3693       1    3651    3654    3657    3687       1
    3651    3669    3666    3690       1    3648    3645    3642    3681       1
    3648    3645    3672    3696       1    3648    3651    3654    3684       1
    3648    3651    3669    3693       1    3645    3642    3639    3678       1
    3645    3672    3675    3699       1    3642    3645    3672    3696       1
    3639    3636    3675    3699       1    3636    3639    3642    3681       1
    3636    3675    3672    3696       1    3633    3636    3639    3678       1
    3633    3636    3675    3699       1    3621    3582    3585    3624       1
    3615    3567    3570    3618       1    3612    3564    3567    3615       1
    3609    3573    3570    3618       1    3606    3579    3582    3621       1
    3603    3588    3585    3624       1    3597    3603    3606    3627       1
    3591    3588    3585    3624       1    3588    3585    3582    3621       1
    3588    3603    3606    3627       1    3582    3579    3606    3627       1
    3579    3582    3585    3624       1    3576    3573    3570    3618       1
    3576    3573    3609    3630       1    3576    3579    3582    3621       1
    3576    3579    3606    3627       1    3573    3570    3567    3615       1
    3570    3573    3609    3630       1    3564    3567    3570    3618       1
    3564    3612    3609    3630       1    3558    3564    3567    3615       1
    3555    3612    3609    3630       1    3546    3522    3525    3549       1
    3540    3516    3519    3543       1    3534    3504    3507    3537       1
    3528    3489    3492    3531       1    3525    3486    3489    3528       1
    3522    3495    3492    3531       1    3519    3501    3504    3534       1
    3516    3510    3507    3537       1    3513    3510    3507    3537       1
    3513    3510    3516    3540       1    3510    3507    3504    3534       1
    3510    3516    3519    3543       1    3507    3510    3516    3540       1
    3504    3501    3519    3543       1    3501    3504    3507    3537       1
    3501    3519    3516    3540       1    3498    3495    3492    3531       1
    3498    3495    3522    3546       1    3498    3501    3504    3534       1
    3498    3501    3519    3543       1    3495    3492    3489    3528       1
    3495    3522    3525    3549       1    3492    3495    3522    3546       1
    3489    3486    3525    3549       1    3486    3489    3492    3531       1
    3486    3525    3522    3546       1    3483    3486    3489    3528       1
    3483    3486    3525    3549       1    3471    3432    3435    3474       1
    3465    3417    3420    3468       1    3462    3414    3417    3465       1
    3459    3423    3420    3468       1    3456    3429    3432    3471       1
    3453    3438    3435    3474       1    3447    3453    3456    3477       1
    3441    3438    3435    3474       1    3438    3435    3432    3471       1
    3438    3453    3456    3477       1    3432    3429    3456    3477       1
    3429    3432    3435    3474       1    3426    3423    3420    3468       1
    3426    3423    3459    3480       1    3426    3429    3432    3471       1
    3426    3429    3456    3477       1    3423    3420    3417    3465       1
    3420    3423    3459    3480       1    3414    3417    3420    3468       1
    3414    3462    3459    3480       1    3408    3414    3417    3465       1
    3405    3462    3459    3480       1    3396    3372    3375    3399       1
    3390    3366    3369    3393       1    3384    3354    3357    3387       1
    3378    3339    3342    3381       1    3375    3336    3339    3378       1
    3372    3345    3342    3381       1    3369    3351    3354    3384       1
    3366    3360    3357    3387       1    3363    3360    3357    3387       1
    3363    3360    3366    3390       1    3360    3357    3354    3384       1
    3360    3366    3369    3393       1    3357    3360    3366    3390       1
    3354    3351    3369    3393       1    3351    3354    3357    3387       1
    3351    3369    3366    3390       1    3348    3345    3342    3381       1
    3348    3345    3372    3396       1    3348    3351    3354    3384       1
    3348    3351    3369    3393       1    3345    3342    3339    3378       1
    3345    3372    3375    3399       1    3342    3345    3372    3396       1
    3339    3336    3375    3399       1    3336    3339    3342    3381       1
    3336    3375    3372    3396       1    3333    3336    3339    3378       1
    3333    3336    3375    3399       1    3321    3282    3285    3324       1
    3315    3267    3270    3318       1    3312    3264    3267    3315       1
    3309    3273    3270    3318       1    3306    3279    3282    3321       1
    3303    3288    3285    3324       1    3297    3303    3306    3327       1
    3291    3288    3285    3324       1    3288    3285    3282    3321       1
    3288    3303    3306    3327       1    3282    3279    3306    3327       1
    3279    3282    3285    3324       1    3276    3273    3270    3318       1
    3276    3273    3309    3330       1    3276    3279    3282    3321       1
    3276    3279    3306    3327       1    3273    3270    3267    3315       1
    3270    3273    3309    3330       1    3264    3267    3270    3318       1
    3264    3312    3309    3330       1    3258    3264    3267    3315       1
    3255    3312    3309    3330       1    3246    3222    3225    3249       1
    3240    3216    3219    3243       1    3234    3204    3207    3237       1
    3228    3189    3192    3231       1    3225    3186    3189    3228       1
    3222    3195    3192    3231       1    3219    3201    3204    3234       1
    3216    3210    3207    3237       1    3213    3210    3207    3237       1
    3213    3210    3216    3240       1    3210    3207    3204    3234       1
    3210    3216    3219    3243       1    3207    3210    3216    3240       1
    3204    3201    3219    3243       1    3201    3204    3207    3237       1
    3201    3219    3216    3240       1    3198    3195    3192    3231       1
    3198    3195    3222    3246       1    3198    3201    3204    3234       1
    3198    3201    3219    3243       1    3195    3192    3189    3228       1
    3195    3222    3225    3249       1    3192    3195    3222    3246       1
    3189    3186    3225    3249       1    3186    3189    3192    3231       1
    3186    3225    3222    3246       1    3183    3186    3189    3228       1
    3183    3186    3225    3249       1    3171    3132    3135    3174       1
    3165    3117    3120    3168       1    3162    3114    3117    3165       1
    3159    3123    3120    3168       1    3156    3129    3132    3171       1
    3153    3138    3135    3174       1    3147    3153    3156    3177       1
    3141    3138    3135    3174       1    3138    3135    3132    3171       1
    3138    3153    3156    3177       1    3132    3129    3156    3177       1
    3129    3132    3135    3174       1    3126    3123    3120    3168       1
    3126    3123    3159    3180       1    3126    3129    3132    3171       1
    3126    3129    3156    3177       1    3123    3120    3117    3165       1
    3120    3123    3159    3180       1    3114    3117    3120    3168       1
    3114    3162    3159    3180       1    3108    3114    3117    3165       1
    3105    3162    3159    3180       1    3096    3072    3075    3099       1
    3090    3066    3069    3093       1    3084    3054    3057    3087       1
    3078    3039    3042    3081       1    3075    3036    3039    3078       1
    3072    3045    3042    3081       1    3069    3051    3054    3084       1
    3066    3060    3057    3087       1    3063    3060    3057    3087       1
    3063    3060    3066    3090       1    3060    3057    3054    3084       1
    3060    3066    3069    3093       1    3057    3060    3066    3090       1
    3054    3051    3069    3093       1    3051    3054    3057    3087       1
    3051    3069    3066    3090       1    3048    3045    3042    3081       1
    3048    3045    3072    3096       1    3048    3051    3054    3084       1
    3048    3051    3069    3093       1    3045    3042    3039    3078       1
    3045    3072    3075    3099       1    3042    3045    3072    3096       1
    3039    3036    3075    3099       1    3036    3039    3042    3081       1
    3036    3075    3072    3096       1    3033    3036    3039    3078       1
    3033    3036    3075    3099       1    3021    2982    2985    3024       1
    3015    2967    2970    3018       1    3012    2964    2967    3015       1
    3009    2973    2970    3018       1    3006    2979    2982    3021       1
    3003    2988    2985    3024       1    2997    3003    3006    3027       1
    2991    2988    2985    3024       1    2988    2985    2982    3021       1
    2988    3003    3006    3027       1    2982    2979    3006    3027       1
    2979    2982    2985    3024       1    2976    2973    2970    3018       1
    2976    2973    3009    3030       1    2976    2979    2982    3021       1
    2976    2979    3006    3027       1    2973    2970    2967    3015       1
    2970    2973    3009    3030       1    2964    2967    2970    3018       1
    2964    3012    3009    3030       1    2958    2964    2967    3015       1
    2955    3012    3009    3030       1    2934    2889    2892    2937       1
    2925    2880    2883    2928       8    2925    2880    2883    2931       8
    2922    2880    2883    2928       8    2922    2880    2883    2931       8
    2919    2877    2880    2922       9    2919    2877    2880    2925       9
    2910    2868    2865    2916       1    2910    2853    2856    2913       1
    2907    2901    2904    2943      10    2907    2886    2883    2928      11
    2907    2886    2883    2931      11    2907    2886    2889    2934       1
    2904    2901    2907    2946       1    2901    2895    2892    2937       1
    2901    2895    2898    2940      10    2898    2895    2892    2937       1
    2895    2892    2889    2934       1    2895    2901    2904    2943      10
    2895    2901    2907    2946       1    2892    2895    2898    2940      10
    2889    2886    2883    2928      11    2889    2886    2883    2931      11
    2889    2886    2907    2946       1    2886    2883    2880    2922       8
    2886    2883    2880    2925       8    2886    2889    2892    2937       1
    2883    2880    2877    2919       9    2883    2886    2889    2934       1
    2883    2886    2907    2946       1    2877    2880    2883    2928       8
    2877    2880    2883    2931       8    2874    2871    2877    2919      14
    2874    2871   -2877    2919       5    2871    2868    2865    2916       1
    2871    2868    2910    2949       1    2871    2877    2880    2922      11
    2871    2877    2880    2925      11    2868    2871    2877    2919       5
    2865    2859    2856    2913       1    2865    2868    2910    2949       1
    2862    2859    2856    2913       1    2862    2859    2865    2916       1
    2856    2853    2910    2949       1    2856    2859    2865    2916       1
    2850    2853    2856    2913       1    2850    2853    2910    2949       1
    2838    2799    2802    2841       1    2832    2784    2787    2835       1
    2829    2781    2784    2832       1    2826    2790    2787    2835       1
    2823    2796    2799    2838       1    2820    2805    2802    2841       1
    2814    2820    2823    2844       1    2808    2805    2802    2841       1
    2805    2802    2799    2838       1    2805    2820    2823    2844       1
    2799    2796    2823    2844       1    2796    2799    2802    2841       1
    2793    2790    2787    2835       1    2793    2790    2826    2847       1
    2793    2796    2799    2838       1    2793    2796    2823    2844       1
    2790    2787    2784    2832       1    2787    2790    2826    2847       1
    2781    2784    2787    2835       1    2781    2829    2826    2847       1
    2775    2781    2784    2832       1    2772    2829    2826    2847       1
    2763    2733    2736    2766       1    2757    2727    2730    2760       1
    2751    2715    2718    2754       1    2745    2700    2703    2748       1
    2736    2697    2694    2739       2    2736    2697    2694    2742       2
    2736    2697    2700    2745       1    2733    2706    2703    2748       1
    2730    2712    2715    2751       1    2727    2721    2718    2754       1
    2724    2721    2718    2754       1    2724    2721    2727    2757       1
    2721    2718    2715    2751       1    2721    2727    2730    2760       1
    2718    2721    2727    2757       1    2715    2712    2730    2760       1
    2712    2715    2718    2754       1    2712    2730    2727    2757       1
    2709    2706    2703    2748       1    2709    2706    2733    2763       1
    2709    2712    2715    2751       1    2709    2712    2730    2760       1
    2706    2703    2700    2745       1    2706    2733    2736    2766       1
    2703    2706    2733    2763       1    2700    2697    2694    2739       2
    2700    2697    2694    2742       2    2700    2697    2736    2766       1
    2697    2700    2703    2748       1    2697    2736    2733    2763       1
    2694    2697    2700    2745       1    2694    2697    2736    2766       1
    5382    5352    5355    5385       1    5376    5346    5349    5379       1
    5364    5334    5337    5367       1    5358    5319    5322    5361       1
    5355    5316    5319    5358       1    5352    5325    5322    5361       1
    5349    5331    5334    5364       1    5346    5340    5337    5367       1
    5346    5340    5343    5370       2    5346    5340    5343    5373       2
    5343    5340    5337    5367       1    5343    5340    5346    5376       1
    5340    5337    5334    5364       1    5340    5346    5349    5379       1
    5337    5340    5343    5370       2    5337    5340    5343    5373       2
    5337    5340    5346    5376       1    5334    5331    5349    5379       1
    5331    5334    5337    5367       1    5331    5349    5346    5376       1
    5328    5325    5322    5361       1    5328    5325    5352    5382       1
    5328    5331    5334    5364       1    5328    5331    5349    5379       1
    5325    5322    5319    5358       1    5325    5352    5355    5385       1
    5322    5325    5352    5382       1    5319    5316    5355    5385       1
    5316    5319    5322    5361       1    5316    5355    5352    5382       1
    5313    5316    5319    5358       1    5313    5316    5355    5385       1
    5301    5262    5265    5304       1    5295    5247    5250    5298       1
    5292    5244    5247    5295       1    5289    5253    5250    5298       1
    5286    5259    5262    5301       1    5283    5268    5265    5304       1
    5277    5283    5286    5307       1    5271    5268    5265    5304       1
    5268    5265    5262    5301       1    5268    5283    5286    5307       1
    5262    5259    5286    5307       1    5259    5262    5265    5304       1
    5256    5253    5250    5298       1    5256    5253    5289    5310       1
    5256    5259    5262    5301       1    5256    5259    5286    5307       1
    5253    5250    5247    5295       1    5250    5253    5289    5310       1
    5244    5247    5250    5298       1    5244    5292    5289    5310       1
    5238    5244    5247    5295       1    5235    5292    5289    5310       1
    5214    5169    5172    5217       1    5205    5160    5163    5208       8
    5205    5160    5163    5211       8    5202    5160    5163    5208       8
    5202    5160    5163    5211       8    5199    5157    5160    5202       9
    5199    5157    5160    5205       9    5190    5148    5145    5196       1
    5190    5133    5136    5193       1    5187    5181    5184    5223      10
    5187    5166    5163    5208      11    5187    5166    5163    5211      11
    5187    5166    5169    5214       1    5184    5181    5187    5226       1
    5181    5175    5172    5217       1    5181    5175    5178    5220      10
    5178    5175    5172    5217       1    5175    5172    5169    5214       1
    5175    5181    5184    5223      10    5175    5181    5187    5226       1
    5172    5175    5178    5220      10    5169    5166    5163    5208      11
    5169    5166    5163    5211      11    5169    5166    5187    5226       1
    5166    5163    5160    5202       8    5166    5163    5160    5205       8
    5166    5169    5172    5217       1    5163    5160    5157    5199       9
    5163    5166    5169    5214       1    5163    5166    5187    5226       1
    5157    5160    5163    5208       8    5157    5160    5163    5211       8
    5154    5151    5157    5199      14    5154    5151   -5157    5199       5
    5151    5148    5145    5196       1    5151    5148    5190    5229       1
    5151    5157    5160    5202      11    5151    5157    5160    5205      11
    5148    5151    5157    5199       5    5145    5139    5136    5193       1
    5145    5148    5190    5229       1    5142    5139    5136    5193       1
    5142    5139    5145    5196       1    5136    5133    5190    5229       1
    5136    5139    5145    5196       1    5130    5133    5136    5193       1
    5130    5133    5190    5229       1    5118    5079    5082    5121       1
    5112    5064    5067    5115       1    5109    5061    5064    5112       1
    5106    5070    5067    5115       1    5103    5076    5079    5118       1
    5100    5085    5082    5121       1    5094    5100    5103    5124       1
    5088    5085    5082    5121       1    5085    5082    5079    5118       1
    5085    5100    5103    5124       1    5079    5076    5103    5124       1
    5076    5079    5082    5121       1    5073    5070    5067    5115       1
    5073    5070    5106    5127       1    5073    5076    5079    5118       1
    5073    5076    5103    5124       1    5070    5067    5064    5112       1
    5067    5070    5106    5127       1    5061    5064    5067    5115       1
    5061    5109    5106    5127       1    5055    5061    5064    5112       1
    5052    5109    5106    5127       1    5043    5019    5022    5046       1
    5037    5013    5016    5040       1    5031    5001    5004    5034       1
    5025    4986    4989    5028       1    5022    4983    4986    5025       1
    5019    4992    4989    5028       1    5016    4998    5001    5031       1
    5013    5007    5004    5034       1    5010    5007    5004    5034       1
    5010    5007    5013    5037       1    5007    5004    5001    5031       1
    5007    5013    5016    5040       1    5004    5007    5013    5037       1
    5001    4998    5016    5040       1    4998    5001    5004    5034       1
    4998    5016    5013    5037       1    4995    4992    4989    5028       1
    4995    4992    5019    5043       1    4995    4998    5001    5031       1
    4995    4998    5016    5040       1    4992    4989    4986    5025       1
    4992    5019    5022    5046       1    4989    4992    5019    5043       1
    4986    4983    5022    5046       1    4983    4986    4989    5028       1
    4983    5022    5019    5043       1    4980    4983    4986    5025       1
    4980    4983    5022    5046       1    4968    4929    4932    4971       1
    4962    4914    4917    4965       1    4959    4911    4914    4962       1
    4956    4920    4917    4965       1    4953    4926    4929    4968       1
    4950    4935    4932    4971       1    4944    4950    4953    4974       1
    4938    4935    4932    4971       1    4935    4932    4929    4968       1
    4935    4950    4953    4974       1    4929    4926    4953    4974       1
    4926    4929    4932    4971       1    4923    4920    4917    4965       1
    4923    4920    4956    4977       1    4923    4926    4929    4968       1
    4923    4926    4953    4974       1    4920    4917    4914    4962       1
    4917    4920    4956    4977       1    4911    4914    4917    4965       1
    4911    4959    4956    4977       1    4905    4911    4914    4962       1
    4902    4959    4956    4977       1    4893    4869    4872    4896       1
    4887    4863    4866    4890       1    4881    4851    4854    4884       1
    4875    4836    4839    4878       1    4872    4833    4836    4875       1
    4869    4842    4839    4878       1    4866    4848    4851    4881       1
    4863    4857    4854    4884       1    4860    4857    4854    4884       1
    4860    4857    4863    4887       1    4857    4854    4851    4881       1
    4857    4863    4866    4890       1    4854    4857    4863    4887       1
    4851    4848    4866    4890       1    4848    4851    4854    4884       1
    4848    4866    4863    4887       1    4845    4842    4839    4878       1
    4845    4842    4869    4893       1    4845    4848    4851    4881       1
    4845    4848    4866    4890       1    4842    4839    4836    4875       1
    4842    4869    4872    4896       1    4839    4842    4869    4893       1
    4836    4833    4872    4896       1    4833    4836    4839    4878       1
    4833    4872    4869    4893       1    4830    4833    4836    4875       1
    4830    4833    4872    4896       1    4818    4779    4782    4821       1
    4812    4764    4767    4815       1    4809    4761    4764    4812       1
    4806    4770    4767    4815       1    4803    4776    4779    4818       1
    4800    4785    4782    4821       1    4794    4800    4803    4824       1
    4788    4785    4782    4821       1    4785    4782    4779    4818       1
    4785    4800    4803    4824       1    4779    4776    4803    4824       1
    4776    4779    4782    4821       1    4773    4770    4767    4815       1
    4773    4770    4806    4827       1    4773    4776    4779    4818       1
    4773    4776    4803    4824       1    4770    4767    4764    4812       1
    4767    4770    4806    4827       1    4761    4764    4767    4815       1
    4761    4809    4806    4827       1    4755    4761    4764    4812       1
    4752    4809    4806    4827       1    4743    4719    4722    4746       1
    4737    4713    4716    4740       1    4731    4701    4704    4734       1
    4725    4686    4689    4728       1    4722    4683    4686    4725       1
    4719    4692    4689    4728       1    4716    4698    4701    4731       1
    4713    4707    4704    4734       1    4710    4707    4704    4734       1
    4710    4707    4713    4737       1    4707    4704    4701    4731       1
    4707    4713    4716    4740       1    4704    4707    4713    4737       1
    4701    4698    4716    4740       1    4698    4701    4704    4734       1
    4698    4716    4713    4737       1    4695    4692    4689    4728       1
    4695    4692    4719    4743       1    4695    4698    4701    4731       1
    4695    4698    4716    4740       1    4692    4689    4686    4725       1
    4692    4719    4722    4746       1    4689    4692    4719    4743       1
    4686    4683    4722    4746       1    4683    4686    4689    4728       1
    4683    4722    4719    4743       1    4680    4683    4686    4725       1
    4680    4683    4722    4746       1    4668    4629    4632    4671       1
    4662    4614    4617    4665       1    4659    4611    4614    4662       1
    4656    4620    4617    4665       1    4653    4626    4629    4668       1
    4650    4635    4632    4671       1    4644    4650    4653    4674       1
    4638    4635    4632    4671       1    4635    4632    4629    4668       1
    4635    4650    4653    4674       1    4629    4626    4653    4674       1
    4626    4629    4632    4671       1    4623    4620    4617    4665       1
    4623    4620    4656    4677       1    4623    4626    4629    4668       1
    4623    4626    4653    4674       1    4620    4617    4614    4662       1
    4617    4620    4656    4677       1    4611    4614    4617    4665       1
    4611    4659    4656    4677       1    4605    4611    4614    4662       1
    4602    4659    4656    4677       1    4593    4569    4572    4596       1
    4587    4563    4566    4590       1    4581    4551    4554    4584       1
    4575    4536    4539    4578       1    4572    4533    4536    4575       1
    4569    4542    4539    4578       1    4566    4548    4551    4581       1
    4563    4557    4554    4584       1    4560    4557    4554    4584       1
    4560    4557    4563    4587       1    4557    4554    4551    4581       1
    4557    4563    4566    4590       1    4554    4557    4563    4587       1
    4551    4548    4566    4590       1    4548    4551    4554    4584       1
    4548    4566    4563    4587       1    4545    4542    4539    4578       1
    4545    4542    4569    4593       1    4545    4548    4551    4581       1
    4545    4548    4566    4590       1    4542    4539    4536    4575       1
    4542    4569    4572    4596       1    4539    4542    4569    4593       1
    4536    4533    4572    4596       1    4533    4536    4539    4578       1
    4533    4572    4569    4593       1    4530    4533    4536    4575       1
    4530    4533    4572    4596       1    4518    4479    4482    4521       1
    4512    4464    4467    4515       1    4509    4461    4464    4512       1
    4506    4470    4467    4515       1    4503    4476    4479    4518       1
    4500    4485    4482    4521       1    4494    4500    4503    4524       1
    4488    4485    4482    4521       1    4485    4482    4479    4518       1
    4485    4500    4503    4524       1    4479    4476    4503    4524       1
    4476    4479    4482    4521       1    4473    4470    4467    4515       1
    4473    4470    4506    4527       1    4473    4476    4479    4518       1
    4473    4476    4503    4524       1    4470    4467    4464    4512       1
    4467    4470    4506    4527       1    4461    4464    4467    4515       1
    4461    4509    4506    4527       1    4455    4461    4464    4512       1
    4452    4509    4506    4527       1    4443    4419    4422    4446       1
    4437    4413    4416    4440       1    4431    4401    4404    4434       1
    4425    4386    4389    4428       1    4422    4383    4386    4425       1
    4419    4392    4389    4428       1    4416    4398    4401    4431       1
    4413    4407    4404    4434       1    4410    4407    4404    4434       1
    4410    4407    4413    4437       1    4407    4404    4401    4431       1
    4407    4413    4416    4440       1    4404    4407    4413    4437       1
    4401    4398    4416    4440       1    4398    4401    4404    4434       1
    4398    4416    4413    4437       1    4395    4392    4389    4428       1
    4395    4392    4419    4443       1    4395    4398    4401    4431       1
    4395    4398    4416    4440       1    4392    4389    4386    4425       1
    4392    4419    4422    4446       1    4389    4392    4419    4443       1
    4386    4383    4422    4446       1    4383    4386    4389    4428       1
    4383    4422    4419    4443       1    4380    4383    4386    4425       1
    4380    4383    4422    4446       1    4368    4329    4332    4371       1
    4362    4314    4317    4365       1    4359    4311    4314    4362       1
    4356    4320    4317    4365       1    4353    4326    4329    4368       1
    4350    4335    4332    4371       1    4344    4350    4353    4374       1
    4338    4335    4332    4371       1    4335    4332    4329    4368       1
    4335    4350    4353    4374       1    4329    4326    4353    4374       1
    4326    4329    4332    4371       1    4323    4320    4317    4365       1
    4323    4320    4356    4377       1    4323    4326    4329    4368       1
    4323    4326    4353    4374       1    4320    4317    4314    4362       1
    4317    4320    4356    4377       1    4311    4314    4317    4365       1
    4311    4359    4356    4377       1    4305    4311    4314    4362       1
    4302    4359    4356    4377       1    4281    4236    4239    4284       1
    4272    4227    4230    4275       8    4272    4227    4230    4278       8
    4269    4227    4230    4275       8    4269    4227    4230    4278       8
    4266    4224    4227    4269       9    4266    4224    4227    4272       9
    4257    4215    4212    4263       1    4257    4200    4203    4260       1
    4254    4248    4251    4290      10    4254    4233    4230    4275      11
    4254    4233    4230    4278      11    4254    4233    4236    4281       1
    4251    4248    4254    4293       1    4248    4242    4239    4284       1
    4248    4242    4245    4287      10    4245    4242    4239    4284       1
    4242    4239    4236    4281       1    4242    4248    4251    4290      10
    4242    4248    4254    4293       1    4239    4242    4245    4287      10
    4236    4233    4230    4275      11    4236    4233    4230    4278      11
    4236    4233    4254    4293       1    4233    4230    4227    4269       8
    4233    4230    4227    4272       8    4233    4236    4239    4284       1
    4230    4227    4224    4266       9    4230    4233    4236    4281       1
    4230    4233    4254    4293       1    4224    4227    4230    4275       8
    4224    4227    4230    4278       8    4221    4218    4224    4266      14
    4221    4218   -4224    4266       5    4218    4215    4212    4263       1
    4218    4215    4257    4296       1    4218    4224    4227    4269      11
    4218    4224    4227    4272      11    4215    4218    4224    4266       5
    4212    4206    4203    4260       1    4212    4215    4257    4296       1
    4209    4206    4203    4260       1    4209    4206    4212    4263       1
    4203    4200    4257    4296       1    4203    4206    4212    4263       1
    4197    4200    4203    4260       1    4197    4200    4257    4296       1
    4185    4146    4149    4188       1    4179    4131    4134    4182       1
    4176    4128    4131    4179       1    4173    4137    4134    4182       1
    4170    4143    4146    4185       1    4167    4152    4149    4188       1
    4161    4167    4170    4191       1    4155    4152    4149    4188       1
    4152    4149    4146    4185       1    4152    4167    4170    4191       1
    4146    4143    4170    4191       1    4143    4146    4149    4188       1
    4140    4137    4134    4182       1    4140    4137    4173    4194       1
    4140    4143    4146    4185       1    4140    4143    4170    4191       1
    4137    4134    4131    4179       1    4134    4137    4173    4194       1
    4128    4131    4134    4182       1    4128    4176    4173    4194       1
    4122    4128    4131    4179       1    4119    4176    4173    4194       1
    4110    4080    4083    4113       1    4104    4074    4077    4107       1
    4098    4062    4065    4101       1    4092    4047    4050    4095       1
    4083    4044    4041    4086       2    4083    4044    4041    4089       2
    4083    4044    4047    4092       1    4080    4053    4050    4095       1
    4077    4059    4062    4098       1    4074    4068    4065    4101       1
    4071    4068    4065    4101       1    4071    4068    4074    4104       1
    4068    4065    4062    4098       1    4068    4074    4077    4107       1
    4065    4068    4074    4104       1    4062    4059    4077    4107       1
    4059    4062    4065    4101       1    4059    4077    4074    4104       1
    4056    4053    4050    4095       1    4056    4053    4080    4110       1
    4056    4059    4062    4098       1    4056    4059    4077    4107       1
    4053    4050    4047    4092       1    4053    4080    4083    4113       1
    4050    4053    4080    4110       1    4047    4044    4041    4086       2
    4047    4044    4041    4089       2    4047    4044    4083    4113       1
    4044    4047    4050    4095       1    4044    4083    4080    4110       1
    4041    4044    4047    4092       1    4041    4044    4083    4113       1
    6729    6699    6702    6732       1    6723    6693    6696    6726       1
    6711    6681    6684    6714       1    6705    6666    6669    6708       1
    6702    6663    6666    6705       1    6699    6672    6669    6708       1
    6696    6678    6681    6711       1    6693    6687    6684    6714       1
    6693    6687    6690    6717       2    6693    6687    6690    6720       2
    6690    6687    6684    6714       1    6690    6687    6693    6723       1
    6687    6684    6681    6711       1    6687    6693    6696    6726       1
    6684    6687    6690    6717       2    6684    6687    6690    6720       2
    6684    6687    6693    6723       1    6681    6678    6696    6726       1
    6678    6681    6684    6714       1    6678    6696    6693    6723       1
    6675    6672    6669    6708       1    6675    6672    6699    6729       1
    6675    6678    6681    6711       1    6675    6678    6696    6726       1
    6672    6669    6666    6705       1    6672    6699    6702    6732       1
    6669    6672    6699    6729       1    6666    6663    6702    6732       1
    6663    6666    6669    6708       1    6663    6702    6699    6729       1
    6660    6663    6666    6705       1    6660    6663    6702    6732       1
    6648    6609    6612    6651       1    6642    6594    6597    6645       1
    6639    6591    6594    6642       1    6636    6600    6597    6645       1
    6633    6606    6609    6648       1    6630    6615    6612    6651       1
    6624    6630    6633    6654       1    6618    6615    6612    6651       1
    6615    6612    6609    6648       1    6615    6630    6633    6654       1
    6609    6606    6633    6654       1    6606    6609    6612    6651       1
    6603    6600    6597    6645       1    6603    6600    6636    6657       1
    6603    6606    6609    6648       1    6603    6606    6633    6654       1
    6600    6597    6594    6642       1    6597    6600    6636    6657       1
    6591    6594    6597    6645       1    6591    6639    6636    6657       1
    6585    6591    6594    6642       1    6582    6639    6636    6657       1
    6561    6516    6519    6564       1    6552    6507    6510    6555       8
    6552    6507    6510    6558       8    6549    6507    6510    6555       8
    6549    6507    6510    6558       8    6546    6504    6507    6549       9
    6546    6504    6507    6552       9    6537    6495    6492    6543       1
    6537    6480    6483    6540       1    6534    6528    6531    6570      10
    6534    6513    6510    6555      11    6534    6513    6510    6558      11
    6534    6513    6516    6561       1    6531    6528    6534    6573       1
    6528    6522    6519    6564       1    6528    6522    6525    6567      10
    6525    6522    6519    6564       1    6522    6519    6516    6561       1
    6522    6528    6531    6570      10    6522    6528    6534    6573       1
    6519    6522    6525    6567      10    6516    6513    6510    6555      11
    6516    6513    6510    6558      11    6516    6513    6534    6573       1
    6513    6510    6507    6549       8    6513    6510    6507    6552       8
    6513    6516    6519    6564       1    6510    6507    6504    6546       9
    6510    6513    6516    6561       1    6510    6513    6534    6573       1
    6504    6507    6510    6555       8    6504    6507    6510    6558       8
    6501    6498    6504    6546      14    6501    6498   -6504    6546       5
    6498    6495    6492    6543       1    6498    6495    6537    6576       1
    6498    6504    6507    6549      11    6498    6504    6507    6552      11
    6495    6498    6504    6546       5    6492    6486    6483    6540       1
    6492    6495    6537    6576       1    6489    6486    6483    6540       1
    6489    6486    6492    6543       1    6483    6480    6537    6576       1
    6483    6486    6492    6543       1    6477    6480    6483    6540       1
    6477    6480    6537    6576       1    6465    6426    6429    6468       1
    6459    6411    6414    6462       1    6456    6408    6411    6459       1
    6453    6417    6414    6462       1    6450    6423    6426    6465       1
    6447    6432    6429    6468       1    6441    6447    6450    6471       1
    6435    6432    6429    6468       1    6432    6429    6426    6465       1
    6432    6447    6450    6471       1    6426    6423    6450    6471       1
    6423    6426    6429    6468       1    6420    6417    6414    6462       1
    6420    6417    6453    6474       1    6420    6423    6426    6465       1
    6420    6423    6450    6471       1    6417    6414    6411    6459       1
    6414    6417    6453    6474       1    6408    6411    6414    6462       1
    6408    6456    6453    6474       1    6402    6408    6411    6459       1
    6399    6456    6453    6474       1    6390    6366    6369    6393       1
    6384    6360    6363    6387       1    6378    6348    6351    6381       1
    6372    6333    6336    6375       1    6369    6330    6333    6372       1
    6366    6339    6336    6375       1    6363    6345    6348    6378       1
    6360    6354    6351    6381       1    6357    6354    6351    6381       1
    6357    6354    6360    6384       1    6354    6351    6348    6378       1
    6354    6360    6363    6387       1    6351    6354    6360    6384       1
    6348    6345    6363    6387       1    6345    6348    6351    6381       1
    6345    6363    6360    6384       1    6342    6339    6336    6375       1
    6342    6339    6366    6390       1    6342    6345    6348    6378       1
    6342    6345    6363    6387       1    6339    6336    6333    6372       1
    6339    6366    6369    6393       1    6336    6339    6366    6390       1
    6333    6330    6369    6393       1    6330    6333    6336    6375       1
    6330    6369    6366    6390       1    6327    6330    6333    6372       1
    6327    6330    6369    6393       1    6315    6276    6279    6318       1
    6309    6261    6264    6312       1    6306    6258    6261    6309       1
    6303    6267    6264    6312       1    6300    6273    6276    6315       1
    6297    6282    6279    6318       1    6291    6297    6300    6321       1
    6285    6282    6279    6318       1    6282    6279    6276    6315       1
    6282    6297    6300    6321       1    6276    6273    6300    6321       1
    6273    6276    6279    6318       1    6270    6267    6264    6312       1
    6270    6267    6303    6324       1    6270    6273    6276    6315       1
    6270    6273    6300    6321       1    6267    6264    6261    6309       1
    6264    6267    6303    6324       1    6258    6261    6264    6312       1
    6258    6306    6303    6324       1    6252    6258    6261    6309       1
    6249    6306    6303    6324       1    6240    6216    6219    6243       1
    6234    6210    6213    6237       1    6228    6198    6201    6231       1
    6222    6183    6186    6225       1    6219    6180    6183    6222       1
    6216    6189    6186    6225       1    6213    6195    6198    6228       1
    6210    6204    6201    6231       1    6207    6204    6201    6231       1
    6207    6204    6210    6234       1    6204    6201    6198    6228       1
    6204    6210    6213    6237       1    6201    6204    6210    6234       1
    6198    6195    6213    6237       1    6195    6198    6201    6231       1
    6195    6213    6210    6234       1    6192    6189    6186    6225       1
    6192    6189    6216    6240       1    6192    6195    6198    6228       1
    6192    6195    6213    6237       1    6189    6186    6183    6222       1
    6189    6216    6219    6243       1    6186    6189    6216    6240       1
    6183    6180    6219    6243       1    6180    6183    6186    6225       1
    6180    6219    6216    6240       1    6177    6180    6183    6222       1
    6177    6180    6219    6243       1    6165    6126    6129    6168       1
    6159    6111    6114    6162       1    6156    6108    6111    6159       1
    6153    6117    6114    6162       1    6150    6123    6126    6165       1
    6147    6132    6129    6168       1    6141    6147    6150    6171       1
    6135    6132    6129    6168       1    6132    6129    6126    6165       1
    6132    6147    6150    6171       1    6126    6123    6150    6171       1
    6123    6126    6129    6168       1    6120    6117    6114    6162       1
    6120    6117    6153    6174       1    6120    6123    6126    6165       1
    6120    6123    6150    6171       1    6117    6114    6111    6159       1
    6114    6117    6153    6174       1    6108    6111    6114    6162       1
    6108    6156    6153    6174       1    6102    6108    6111    6159       1
    6099    6156    6153    6174       1    6090    6066    6069    6093       1
    6084    6060    6063    6087       1    6078    6048    6051    6081       1
    6072    6033    6036    6075       1    6069    6030    6033    6072       1
    6066    6039    6036    6075       1    6063    6045    6048    6078       1
    6060    6054    6051    6081       1    6057    6054    6051    6081       1
    6057    6054    6060    6084       1    6054    6051    6048    6078       1
    6054    6060    6063    6087       1    6051    6054    6060    6084       1
    6048    6045    6063    6087       1    6045    6048    6051    6081       1
    6045    6063    6060    6084       1    6042    6039    6036    6075       1
    6042    6039    6066    6090       1    6042    6045    6048    6078       1
    6042    6045    6063    6087       1    6039    6036    6033    6072       1
    6039    6066    6069    6093       1    6036    6039    6066    6090       1
    6033    6030    6069    6093       1    6030    6033    6036    6075       1
    6030    6069    6066    6090       1    6027    6030    6033    6072       1
    6027    6030    6069    6093       1    6015    5976    5979    6018       1
    6009    5961    5964    6012       1    6006    5958    5961    6009       1
    6003    5967    5964    6012       1    6000    5973    5976    6015       1
    5997    5982    5979    6018       1    5991    5997    6000    6021       1
    5985    5982    5979    6018       1    5982    5979    5976    6015       1
    5982    5997    6000    6021       1    5976    5973    6000    6021       1
    5973    5976    5979    6018       1    5970    5967    5964    6012       1
    5970    5967    6003    6024       1    5970    5973    5976    6015       1
    5970    5973    6000    6021       1    5967    5964    5961    6009       1
    5964    5967    6003    6024       1    5958    5961    5964    6012       1
    5958    6006    6003    6024       1    5952    5958    5961    6009       1
    5949    6006    6003    6024       1    5940    5916    5919    5943       1
    5934    5910    5913    5937       1    5928    5898    5901    5931       1
    5922    5883    5886    5925       1    5919    5880    5883    5922       1
    5916    5889    5886    5925       1    5913    5895    5898    5928       1
    5910    5904    5901    5931       1    5907    5904    5901    5931       1
    5907    5904    5910    5934       1    5904    5901    5898    5928       1
    5904    5910    5913    5937       1    5901    5904    5910    5934       1
    5898    5895    5913    5937       1    5895    5898    5901    5931       1
    5895    5913    5910    5934       1    5892    5889    5886    5925       1
    5892    5889    5916    5940       1    5892    5895    5898    5928       1
    5892    5895    5913    5937       1    5889    5886    5883    5922       1
    5889    5916    5919    5943       1    5886    5889    5916    5940       1
    5883    5880    5919    5943       1    5880    5883    5886    5925       1
    5880    5919    5916    5940       1    5877    5880    5883    5922       1
    5877    5880    5919    5943       1    5865    5826    5829    5868       1
    5859    5811    5814    5862       1    5856    5808    5811    5859       1
    5853    5817    5814    5862       1    5850    5823    5826    5865       1
    5847    5832    5829    5868       1    5841    5847    5850    5871       1
    5835    5832    5829    5868       1    5832    5829    5826    5865       1
    5832    5847    5850    5871       1    5826    5823    5850    5871       1
    5823    5826    5829    5868       1    5820    5817    5814    5862       1
    5820    5817    5853    5874       1    5820    5823    5826    5865       1
    5820    5823    5850    5871       1    5817    5814    5811    5859       1
    5814    5817    5853    5874       1    5808    5811    5814    5862       1
    5808    5856    5853    5874       1    5802    5808    5811    5859       1
    5799    5856    5853    5874       1    5790    5766    5769    5793       1
    5784    5760    5763    5787       1    5778    5748    5751    5781       1
    5772    5733    5736    5775       1    5769    5730    5733    5772       1
    5766    5739    5736    5775       1    5763    5745    5748    5778       1
    5760    5754    5751    5781       1    5757    5754    5751    5781       1
    5757    5754    5760    5784       1    5754    5751    5748    5778       1
    5754    5760    5763    5787       1    5751    5754    5760    5784       1
    5748    5745    5763    5787       1    5745    5748    5751    5781       1
    5745    5763    5760    5784       1    5742    5739    5736    5775       1
    5742    5739    5766    5790       1    5742    5745    5748    5778       1
    5742    5745    5763    5787       1    5739    5736    5733    5772       1
    5739    5766    5769    5793       1    5736    5739    5766    5790       1
    5733    5730    5769    5793       1    5730    5733    5736    5775       1
    5730    5769    5766    5790       1    5727    5730    5733    5772       1
    5727    5730    5769    5793       1    5715    5676    5679    5718       1
    5709    5661    5664    5712       1    5706    5658    5661    5709       1
    5703    5667    5664    5712       1    5700    5673    5676    5715       1
    5697    5682    5679    5718       1    5691    5697    5700    5721       1
    5685    5682    5679    5718       1    5682    5679    5676    5715       1
    5682    5697    5700    5721       1    5676    5673    5700    5721       1
    5673    5676    5679    5718       1    5670    5667    5664    5712       1
    5670    5667    5703    5724       1    5670    5673    5676    5715       1
    5670    5673    5700    5721       1    5667    5664    5661    5709       1
    5664    5667    5703    5724       1    5658    5661    5664    5712       1
    5658    5706    5703    5724       1    5652    5658    5661    5709       1
    5649    5706    5703    5724       1    5628    5583    5586    5631       1
    5619    5574    5577    5622       8    5619    5574    5577    5625       8
    5616    5574    5577    5622       8    5616    5574    5577    5625       8
    5613    5571    5574    5616       9    5613    5571    5574    5619       9
    5604    5562    5559    5610       1    5604    5547    5550    5607       1
    5601    5595    5598    5637      10    5601    5580    5577    5622      11
    5601    5580    5577    5625      11    5601    5580    5583    5628       1
    5598    5595    5601    5640       1    5595    5589    5586    5631       1
    5595    5589    5592    5634      10    5592    5589    5586    5631       1
    5589    5586    5583    5628       1    5589    5595    5598    5637      10
    5589    5595    5601    5640       1    5586    5589    5592    5634      10
    5583    5580    5577    5622      11    5583    5580    5577    5625      11
    5583    5580    5601    5640       1    5580    5577    5574    5616       8
    5580    5577    5574    5619       8    5580    5583    5586    5631       1
    5577    5574    5571    5613       9    5577    5580    5583    5628       1
    5577    5580    5601    5640       1    5571    5574    5577    5622       8
    5571    5574    5577    5625       8    5568    5565    5571    5613      14
    5568    5565   -5571    5613       5    5565    5562    5559    5610       1
    5565    5562    5604    5643       1    5565    5571    5574    5616      11
    5565    5571    5574    5619      11    5562    5565    5571    5613       5
    5559    5553    5550    5607       1    5559    5562    5604    5643       1
    5556    5553    5550    5607       1    5556    5553    5559    5610       1
    5550    5547    5604    5643       1    5550    5553    5559    5610       1
    5544    5547    5550    5607       1    5544    5547    5604    5643       1
    5532    5493    5496    5535       1    5526    5478    5481    5529       1
    5523    5475    5478    5526       1    5520    5484    5481    5529       1
    5517    5490    5493    5532       1    5514    5499    5496    5535       1
    5508    5514    5517    5538       1    5502    5499    5496    5535       1
    5499    5496    5493    5532       1    5499    5514    5517    5538       1
    5493    5490    5517    5538       1    5490    5493    5496    5535       1
    5487    5484    5481    5529       1    5487    5484    5520    5541       1
    5487    5490    5493    5532       1    5487    5490    5517    5538       1
    5484    5481    5478    5526       1    5481    5484    5520    5541       1
    5475    5478    5481    5529       1    5475    5523    5520    5541       1
    5469    5475    5478    5526       1    5466    5523    5520    5541       1
    5457    5427    5430    5460       1    5451    5421    5424    5454       1
    5445    5409    5412    5448       1    5439    5394    5397    5442       1
    5430    5391    5388    5433       2    5430    5391    5388    5436       2
    5430    5391    5394    5439       1    5427    5400    5397    5442       1
    5424    5406    5409    5445       1    5421    5415    5412    5448       1
    5418    5415    5412    5448       1    5418    5415    5421    5451       1
    5415    5412    5409    5445       1    5415    5421    5424    5454       1
    5412    5415    5421    5451       1    5409    5406    5424    5454       1
    5406    5409    5412    5448       1    5406    5424    5421    5451       1
    5403    5400    5397    5442       1    5403    5400    5427    5457       1
    5403    5406    5409    5445       1    5403    5406    5424    5454       1
    5400    5397    5394    5439       1    5400    5427    5430    5460       1
    5397    5400    5427    5457       1    5394    5391    5388    5433       2
    5394    5391    5388    5436       2    5394    5391    5430    5460       1
    5391    5394    5397    5442       1    5391    5430    5427    5457       1
    5388    5391    5394    5439       1    5388    5391    5430    5460       1
    8076    8046    8049    8079       1    8070    8040    8043    8073       1
    8058    8028    8031    8061       1    8052    8013    8016    8055       1
    8049    8010    8013    8052       1    8046    8019    8016    8055       1
    8043    8025    8028    8058       1    8040    8034    8031    8061       1
    8040    8034    8037    8064       2    8040    8034    8037    8067       2
    8037    8034    8031    8061       1    8037    8034    8040    8070       1
    8034    8031    8028    8058       1    8034    8040    8043    8073       1
    8031    8034    8037    8064       2    8031    8034    8037    8067       2
    8031    8034    8040    8070       1    8028    8025    8043    8073       1
    8025    8028    8031    8061       1    8025    8043    8040    8070       1
    8022    8019    8016    8055       1    8022    8019    8046    8076       1
    8022    8025    8028    8058       1    8022    8025    8043    8073       1
    8019    8016    8013    8052       1    8019    8046    8049    8079       1
    8016    8019    8046    8076       1    8013    8010    8049    8079       1
    8010    8013    8016    8055       1    8010    8049    8046    8076       1
    8007    8010    8013    8052       1    8007    8010    8049    8079       1
    7995    7956    7959    7998       1    7989    7941    7944    7992       1
    7986    7938    7941    7989       1    7983    7947    7944    7992       1
    7980    7953    7956    7995       1    7977    7962    7959    7998       1
    7971    7977    7980    8001       1    7965    7962    7959    7998       1
    7962    7959    7956    7995       1    7962    7977    7980    8001       1
    7956    7953    7980    8001       1    7953    7956    7959    7998       1
    7950    7947    7944    7992       1    7950    7947    7983    8004       1
    7950    7953    7956    7995       1    7950    7953    7980    8001       1
    7947    7944    7941    7989       1    7944    7947    7983    8004       1
    7938    7941    7944    7992       1    7938    7986    7983    8004       1
    7932    7938    7941    7989       1    7929    7986    7983    8004       1
    7908    7863    7866    7911       1    7899    7854    7857    7902       8
    7899    7854    7857    7905       8    7896    7854    7857    7902       8
    7896    7854    7857    7905       8    7893    7851    7854    7896       9
    7893    7851    7854    7899       9    7884    7842    7839    7890       1
    7884    7827    7830    7887       1    7881    7875    7878    7917      10
    7881    7860    7857    7902      11    7881    7860    7857    7905      11
    7881    7860    7863    7908       1    7878    7875    7881    7920       1
    7875    7869    7866    7911       1    7875    7869    7872    7914      10
    7872    7869    7866    7911       1    7869    7866    7863    7908       1
    7869    7875    7878    7917      10    7869    7875    7881    7920       1
    7866    7869    7872    7914      10    7863    7860    7857    7902      11
    7863    7860    7857    7905      11    7863    7860    7881    7920       1
    7860    7857    7854    7896       8    7860    7857    7854    7899       8
    7860    7863    7866    7911       1    7857    7854    7851    7893       9
    7857    7860    7863    7908       1    7857    7860    7881    7920       1
    7851    7854    7857    7902       8    7851    7854    7857    7905       8
    7848    7845    7851    7893      14    7848    7845   -7851    7893       5
    7845    7842    7839    7890       1    7845    7842    7884    7923       1
    7845    7851    7854    7896      11    7845    7851    7854    7899      11
    7842    7845    7851    7893       5    7839    7833    7830    7887       1
    7839    7842    7884    7923       1    7836    7833    7830    7887       1
    7836    7833    7839    7890       1    7830    7827    7884    7923       1
    7830    7833    7839    7890       1    7824    7827    7830    7887       1
    7824    7827    7884    7923       1    7812    7773    7776    7815       1
    7806    7758    7761    7809       1    7803    7755    7758    7806       1
    7800    7764    7761    7809       1    7797    7770    7773    7812       1
    7794    7779    7776    7815       1    7788    7794    7797    7818       1
    7782    7779    7776    7815       1    7779    7776    7773    7812       1
    7779    7794    7797    7818       1    7773    7770    7797    7818       1
    7770    7773    7776    7815       1    7767    7764    7761    7809       1
    7767    7764    7800    7821       1    7767    7770    7773    7812       1
    7767    7770    7797    7818       1    7764    7761    7758    7806       1
    7761    7764    7800    7821       1    7755    7758    7761    7809       1
    7755    7803    7800    7821       1    7749    7755    7758    7806       1
    7746    7803    7800    7821       1    7737    7713    7716    7740       1
    7731    7707    7710    7734       1    7725    7695    7698    7728       1
    7719    7680    7683    7722       1    7716    7677    7680    7719       1
    7713    7686    7683    7722       1    7710    7692    7695    7725       1
    7707    7701    7698    7728       1    7704    7701    7698    7728       1
    7704    7701    7707    7731       1    7701    7698    7695    7725       1
    7701    7707    7710    7734       1    7698    7701    7707    7731       1
    7695    7692    7710    7734       1    7692    7695    7698    7728       1
    7692    7710    7707    7731       1    7689    7686    7683    7722       1
    7689    7686    7713    7737       1    7689    7692    7695    7725       1
    7689    7692    7710    7734       1    7686    7683    7680    7719       1
    7686    7713    7716    7740       1    7683    7686    7713    7737       1
    7680    7677    7716    7740       1    7677    7680    7683    7722       1
    7677    7716    7713    7737       1    7674    7677    7680    7719       1
    7674    7677    7716    7740       1    7662    7623    7626    7665       1
    7656    7608    7611    7659       1    7653    7605    7608    7656       1
    7650    7614    7611    7659       1    7647    7620    7623    7662       1
    7644    7629    7626    7665       1    7638    7644    7647    7668       1
    7632    7629    7626    7665       1    7629    7626    7623    7662       1
    7629    7644    7647    7668       1    7623    7620    7647    7668       1
    7620    7623    7626    7665       1    7617    7614    7611    7659       1
    7617    7614    7650    7671       1    7617    7620    7623    7662       1
    7617    7620    7647    7668       1    7614    7611    7608    7656       1
    7611    7614    7650    7671       1    7605    7608    7611    7659       1
    7605    7653    7650    7671       1    7599    7605    7608    7656       1
    7596    7653    7650    7671       1    7587    7563    7566    7590       1
    7581    7557    7560    7584       1    7575    7545    7548    7578       1
    7569    7530    7533    7572       1    7566    7527    7530    7569       1
    7563    7536    7533    7572       1    7560    7542    7545    7575       1
    7557    7551    7548    7578       1    7554    7551    7548    7578       1
    7554    7551    7557    7581       1    7551    7548    7545    7575       1
    7551    7557    7560    7584       1    7548    7551    7557    7581       1
    7545    7542    7560    7584       1    7542    7545    7548    7578       1
    7542    7560    7557    7581       1    7539    7536    7533    7572       1
    7539    7536    7563    7587       1    7539    7542    7545    7575       1
    7539    7542    7560    7584       1    7536    7533    7530    7569       1
    7536    7563    7566    7590       1    7533    7536    7563    7587       1
    7530    7527    7566    7590       1    7527    7530    7533    7572       1
    7527    7566    7563    7587       1    7524    7527    7530    7569       1
    7524    7527    7566    7590       1    7512    7473    7476    7515       1
    7506    7458    7461    7509       1    7503    7455    7458    7506       1
    7500    7464    7461    7509       1    7497    7470    7473    7512       1
    7494    7479    7476    7515       1    7488    7494    7497    7518       1
    7482    7479    7476    7515       1    7479    7476    7473    7512       1
    7479    7494    7497    7518       1    7473    7470    7497    7518       1
    7470    7473    7476    7515       1    7467    7464    7461    7509       1
    7467    7464    7500    7521       1    7467    7470    7473    7512       1
    7467    7470    7497    7518       1    7464    7461    7458    7506       1
    7461    7464    7500    7521       1    7455    7458    7461    7509       1
    7455    7503    7500    7521       1    7449    7455    7458    7506       1
    7446    7503    7500    7521       1    7437    7413    7416    7440       1
    7431    7407    7410    7434       1    7425    7395    7398    7428       1
    7419    7380    7383    7422       1    7416    7377    7380    7419       1
    7413    7386    7383    7422       1    7410    7392    7395    7425       1
    7407    7401    7398    7428       1    7404    7401    7398    7428       1
    7404    7401    7407    7431       1    7401    7398    7395    7425       1
    7401    7407    7410    7434       1    7398    7401    7407    7431       1
    7395    7392    7410    7434       1    7392    7395    7398    7428       1
    7392    7410    7407    7431       1    7389    7386    7383    7422       1
    7389    7386    7413    7437       1    7389    7392    7395    7425       1
    7389    7392    7410    7434       1    7386    7383    7380    7419       1
    7386    7413    7416    7440       1    7383    7386    7413    7437       1
    7380    7377    7416    7440       1    7377    7380    7383    7422       1
    7377    7416    7413    7437       1    7374    7377    7380    7419       1
    7374    7377    7416    7440       1    7362    7323    7326    7365       1
    7356    7308    7311    7359       1    7353    7305    7308    7356       1
    7350    7314    7311    7359       1    7347    7320    7323    7362       1
    7344    7329    7326    7365       1    7338    7344    7347    7368       1
    7332    7329    7326    7365       1    7329    7326    7323    7362       1
    7329    7344    7347    7368       1    7323    7320    7347    7368       1
    7320    7323    7326    7365       1    7317    7314    7311    7359       1
    7317    7314    7350    7371       1    7317    7320    7323    7362       1
    7317    7320    7347    7368       1    7314    7311    7308    7356       1
    7311    7314    7350    7371       1    7305    7308    7311    7359       1
    7305    7353    7350    7371       1    7299    7305    7308    7356       1
    7296    7353    7350    7371       1    7287    7263    7266    7290       1
    7281    7257    7260    7284       1    7275    7245    7248    7278       1
    7269    7230    7233    7272       1    7266    7227    7230    7269       1
    7263    7236    7233    7272       1    7260    7242    7245    7275       1
    7257    7251    7248    7278       1    7254    7251    7248    7278       1
    7254    7251    7257    7281       1    7251    7248    7245    7275       1
    7251    7257    7260    7284       1    7248    7251    7257    7281       1
    7245    7242    7260    7284       1    7242    7245    7248    7278       1
    7242    7260    7257    7281       1    7239    7236    7233    7272       1
    7239    7236    7263    7287       1    7239    7242    7245    7275       1
    7239    7242    7260    7284       1    7236    7233    7230    7269       1
    7236    7263    7266    7290       1    7233    7236    7263    7287       1
    7230    7227    7266    7290       1    7227    7230    7233    7272       1
    7227    7266    7263    7287       1    7224    7227    7230    7269       1
    7224    7227    7266    7290       1    7212    7173    7176    7215       1
    7206    7158    7161    7209       1    7203    7155    7158    7206       1
    7200    7164    7161    7209       1    7197    7170    7173    7212       1
    7194    7179    7176    7215       1    7188    7194    7197    7218       1
    7182    7179    7176    7215       1    7179    7176    7173    7212       1
    7179    7194    7197    7218       1    7173    7170    7197    7218       1
    7170    7173    7176    7215       1    7167    7164    7161    7209       1
    7167    7164    7200    7221       1    7167    7170    7173    7212       1
    7167    7170    7197    7218       1    7164    7161    7158    7206       1
    7161    7164    7200    7221       1    7155    7158    7161    7209       1
    7155    7203    7200    7221       1    7149    7155    7158    7206       1
    7146    7203    7200    7221       1    7137    7113    7116    7140       1
    7131    7107    7110    7134       1    7125    7095    7098    7128       1
    7119    7080    7083    7122       1    7116    7077    7080    7119       1
    7113    7086    7083    7122       1    7110    7092    7095    7125       1
    7107    7101    7098    7128       1    7104    7101    7098    7128       1
    7104    7101    7107    7131       1    7101    7098    7095    7125       1
    7101    7107    7110    7134       1    7098    7101    7107    7131       1
    7095    7092    7110    7134       1    7092    7095    7098    7128       1
    7092    7110    7107    7131       1    7089    7086    7083    7122       1
    7089    7086    7113    7137       1    7089    7092    7095    7125       1
    7089    7092    7110    7134       1    7086    7083    7080    7119       1
    7086    7113    7116    7140       1    7083    7086    7113    7137       1
    7080    7077    7116    7140       1    7077    7080    7083    7122       1
    7077    7116    7113    7137       1    7074    7077    7080    7119       1
    7074    7077    7116    7140       1    7062    7023    7026    7065       1
    7056    7008    7011    7059       1    7053    7005    7008    7056       1
    7050    7014    7011    7059       1    7047    7020    7023    7062       1
    7044    7029    7026    7065       1    7038    7044    7047    7068       1
    7032    7029    7026    7065       1    7029    7026    7023    7062       1
    7029    7044    7047    7068       1    7023    7020    7047    7068       1
    7020    7023    7026    7065       1    7017    7014    7011    7059       1
    7017    7014    7050    7071       1    7017    7020    7023    7062       1
    7017    7020    7047    7068       1    7014    7011    7008    7056       1
    7011    7014    7050    7071       1    7005    7008    7011    7059       1
    7005    7053    7050    7071       1    6999    7005    7008    7056       1
    6996    7053    7050    7071       1    6975    6930    6933    6978       1
    6966    6921    6924    6969       8    6966    6921    6924    6972       8
    6963    6921    6924    6969       8    6963    6921    6924    6972       8
    6960    6918    6921    6963       9    6960    6918    6921    6966       9
    6951    6909    6906    6957       1    6951    6894    6897    6954       1
    6948    6942    6945    6984      10    6948    6927    6924    6969      11
    6948    6927    6924    6972      11    6948    6927    6930    6975       1
    6945    6942    6948    6987       1    6942    6936    6933    6978       1
    6942    6936    6939    6981      10    6939    6936    6933    6978       1
    6936    6933    6930    6975       1    6936    6942    6945    6984      10
    6936    6942    6948    6987       1    6933    6936    6939    6981      10
    6930    6927    6924    6969      11    6930    6927    6924    6972      11
    6930    6927    6948    6987       1    6927    6924    6921    6963       8
    6927    6924    6921    6966       8    6927    6930    6933    6978       1
    6924    6921    6918    6960       9    6924    6927    6930    6975       1
    6924    6927    6948    6987       1    6918    6921    6924    6969       8
    6918    6921    6924    6972       8    6915    6912    6918    6960      14
    6915    6912   -6918    6960       5    6912    6909    6906    6957       1
    6912    6909    6951    6990       1    6912    6918    6921    6963      11
    6912    6918    6921    6966      11    6909    6912    6918    6960       5
    6906    6900    6897    6954       1    6906    6909    6951    6990       1
    6903    6900    6897    6954       1    6903    6900    6906    6957       1
    6897    6894    6951    6990       1    6897    6900    6906    6957       1
    6891    6894    6897    6954       1    6891    6894    6951    6990       1
    6879    6840    6843    6882       1    6873    6825    6828    6876       1
    6870    6822    6825    6873       1    6867    6831    6828    6876       1
    6864    6837    6840    6879       1    6861    6846    6843    6882       1
    6855    6861    6864    6885       1    6849    6846    6843    6882       1
    6846    6843    6840    6879       1    6846    6861    6864    6885       1
    6840    6837    6864    6885       1    6837    6840    6843    6882       1
    6834    6831    6828    6876       1    6834    6831    6867    6888       1
    6834    6837    6840    6879       1    6834    6837    6864    6885       1
    6831    6828    6825    6873       1    6828    6831    6867    6888       1
    6822    6825    6828    6876       1    6822    6870    6867    6888       1
    6816    6822    6825    6873       1    6813    6870    6867    6888       1
    6804    6774    6777    6807       1    6798    6768    6771    6801       1
    6792    6756    6759    6795       1    6786    6741    6744    6789       1
    6777    6738    6735    6780       2    6777    6738    6735    6783       2
    6777    6738    6741    6786       1    6774    6747    6744    6789       1
    6771    6753    6756    6792       1    6768    6762    6759    6795       1
    6765    6762    6759    6795       1    6765    6762    6768    6798       1
    6762    6759    6756    6792       1    6762    6768    6771    6801       1
    6759    6762    6768    6798       1    6756    6753    6771    6801       1
    6753    6756    6759    6795       1    6753    6771    6768    6798       1
    6750    6747    6744    6789       1    6750    6747    6774    6804       1
    6750    6753    6756    6792       1    6750    6753    6771    6801       1
    6747    6744    6741    6786       1    6747    6774    6777    6807       1
    6744    6747    6774    6804       1    6741    6738    6735    6780       2
    6741    6738    6735    6783       2    6741    6738    6777    6807       1
    6738    6741    6744    6789       1    6738    6777    6774    6804       1
    6735    6738    6741    6786       1    6735    6738    6777    6807       1
    1275    1311   -1314   -1344      18    1284    1314   -1311   -1341      18
    1290    1305   -1308   -1338      18    1299    1308   -1305   -1335      18
    1299    1329   -1302   -1332      18    1293    1299   -1296   -1326      18
    1290    1296   -1293   -1323      18    1278    1284   -1281   -1320      18
    1275    1281   -1278   -1317      18    1212    1251   -1248   -1269      18
    1218    1242   -1245   -1266      18    1221    1227   -1224   -1263      18
    1218    1224   -1221   -1260      18    1206    1212   -1209   -1257      18
    1203    1209   -1206   -1254      18    1092    1107   -1149   -1188      18
    1125    1140   -1146   -1185      18    1128    1134   -1131   -1176      18
    1125    1131   -1128   -1173      18    1110    1119   -1116   -1158      18
    1098    1107   -1104   -1155      18    1092    1098   -1095   -1152      18
    1029    1068   -1065   -1086      18    1035    1059   -1062   -1083      18
    1038    1044   -1041   -1080      18    1035    1041   -1038   -1077      18
    1023    1029   -1026   -1074      18    1020    1026   -1023   -1071      18
     942     978    -981   -1005      18     951     981    -978   -1002      18
     957     972    -975    -999      18     966     975    -972    -996      18
     960     966    -963    -993      18     957     963    -960    -990      18
     945     951    -948    -987      18     942     948    -945    -984      18
     879     918    -915    -936      18     885     909    -912    -933      18
     888     894    -891    -930      18     885     891    -888    -927      18
     873     879    -876    -924      18     870     876    -873    -921      18
     792     828    -831    -855      18     801     831    -828    -852      18
     807     822    -825    -849      18     816     825    -822    -846      18
     810     816    -813    -843      18     807     813    -810    -840      18
     795     801    -798    -837      18     792     798    -795    -834      18
     729     768    -765    -786      18     735     759    -762    -783      18
     738     744    -741    -780      18     735     741    -738    -777      18
     723     729    -726    -774      18     720     726    -723    -771      18
     642     678    -681    -705      18     651     681    -678    -702      18
     657     672    -675    -699      18     666     675    -672    -696      18
     660     666    -663    -693      18     657     663    -660    -690      18
     645     651    -648    -687      18     642     648    -645    -684      18
     579     618    -615    -636      18     585     609    -612    -633      18
     588     594    -591    -630      18     585     591    -588    -627      18
     573     579    -576    -624      18     570     576    -573    -621      18
     492     528    -531    -555      18     501     531    -528    -552      18
     507     522    -525    -549      18     516     525    -522    -546      18
     510     516    -513    -543      18     507     513    -510    -540      18
     495     501    -498    -537      18     492     498    -495    -534      18
     429     468    -465    -486      18     435     459    -462    -483      18
     438     444    -441    -480      18     435     441    -438    -477      18
     423     429    -426    -474      18     420     426    -423    -471      18
     342     378    -381    -405      18     351     381    -378    -402      18
     357     372    -375    -399      18     366     375    -372    -396      18
     360     366    -363    -393      18     357     363    -360    -390      18
     345     351    -348    -387      18     342     348    -345    -384      18
     279     318    -315    -336      18     285     309    -312    -333      18
     288     294    -291    -330      18     285     291    -288    -327      18
     273     279    -276    -324      18     270     276    -273    -321      18
     159     174    -216    -255      18     192     207    -213    -252      18
     195     201    -198    -243      18     192     198    -195    -240      18
     177     186    -183    -225      18     165     174    -171    -222      18
     159     165    -162    -219      18      96     135    -132    -153      18
     102     126    -129    -150      18     105     111    -108    -147      18
     102     108    -105    -144      18      90      96     -93    -141      18
      87      93     -90    -138      18       3      39     -42     -72      18
      12      42     -39     -69      18      18      33     -36     -66      18
      27      36     -33     -63      18      21      27     -24     -60      18
      18      24     -21     -57      18       6      12      -9     -54      18
       3       9      -6     -51      18      48       0     -45      -3      18
    2622    2658   -2661   -2691      18    2631    2661   -2658   -2688      18
    2637    2652   -2655   -2685      18    2646    2655   -2652   -2682      18
    2646    2676   -2649   -2679      18    2640    2646   -2643   -2673      18
    2637    2643   -2640   -2670      18    2625    2631   -2628   -2667      18
    2622    2628   -2625   -2664      18    2559    2598   -2595   -2616      18
    2565    2589   -2592   -2613      18    2568    2574   -2571   -2610      18
    2565    2571   -2568   -2607      18    2553    2559   -2556   -2604      18
    2550    2556   -2553   -2601      18    2439    2454   -2496   -2535      18
    2472    2487   -2493   -2532      18    2475    2481   -2478   -2523      18
    2472    2478   -2475   -2520      18    2457    2466   -2463   -2505      18
    2445    2454   -2451   -2502      18    2439    2445   -2442   -2499      18
    2376    2415   -2412   -2433      18    2382    2406   -2409   -2430      18
    2385    2391   -2388   -2427      18    2382    2388   -2385   -2424      18
    2370    2376   -2373   -2421      18    2367    2373   -2370   -2418      18
    2289    2325   -2328   -2352      18    2298    2328   -2325   -2349      18
    2304    2319   -2322   -2346      18    2313    2322   -2319   -2343      18
    2307    2313   -2310   -2340      18    2304    2310   -2307   -2337      18
    2292    2298   -2295   -2334      18    2289    2295   -2292   -2331      18
    2226    2265   -2262   -2283      18    2232    2256   -2259   -2280      18
    2235    2241   -2238   -2277      18    2232    2238   -2235   -2274      18
    2220    2226   -2223   -2271      18    2217    2223   -2220   -2268      18
    2139    2175   -2178   -2202      18    2148    2178   -2175   -2199      18
    2154    2169   -2172   -2196      18    2163    2172   -2169   -2193      18
    2157    2163   -2160   -2190      18    2154    2160   -2157   -2187      18
    2142    2148   -2145   -2184      18    2139    2145   -2142   -2181      18
    2076    2115   -2112   -2133      18    2082    2106   -2109   -2130      18
    2085    2091   -2088   -2127      18    2082    2088   -2085   -2124      18
    2070    2076   -2073   -2121      18    2067    2073   -2070   -2118      18
    1989    2025   -2028   -2052      18    1998    2028   -2025   -2049      18
    2004    2019   -2022   -2046      18    2013    2022   -2019   -2043      18
    2007    2013   -2010   -2040      18    2004    2010   -2007   -2037      18
    1992    1998   -1995   -2034      18    1989    1995   -1992   -2031      18
    1926    1965   -1962   -1983      18    1932    1956   -1959   -1980      18
    1935    1941   -1938   -1977      18    1932    1938   -1935   -1974      18
    1920    1926   -1923   -1971      18    1917    1923   -1920   -1968      18
    1839    1875   -1878   -1902      18    1848    1878   -1875   -1899      18
    1854    1869   -1872   -1896      18    1863    1872   -1869   -1893      18
    1857    1863   -1860   -1890      18    1854    1860   -1857   -1887      18
    1842    1848   -1845   -1884      18    1839    1845   -1842   -1881      18
    1776    1815   -1812   -1833      18    1782    1806   -1809   -1830      18
    1785    1791   -1788   -1827      18    1782    1788   -1785   -1824      18
    1770    1776   -1773   -1821      18    1767    1773   -1770   -1818      18
    1689    1725   -1728   -1752      18    1698    1728   -1725   -1749      18
    1704    1719   -1722   -1746      18    1713    1722   -1719   -1743      18
    1707    1713   -1710   -1740      18    1704    1710   -1707   -1737      18
    1692    1698   -1695   -1734      18    1689    1695   -1692   -1731      18
    1626    1665   -1662   -1683      18    1632    1656   -1659   -1680      18
    1635    1641   -1638   -1677      18    1632    1638   -1635   -1674      18
    1620    1626   -1623   -1671      18    1617    1623   -1620   -1668      18
    1506    1521   -1563   -1602      18    1539    1554   -1560   -1599      18
    1542    1548   -1545   -1590      18    1539    1545   -1542   -1587      18
    1524    1533   -1530   -1572      18    1512    1521   -1518   -1569      18
    1506    1512   -1509   -1566      18    1443    1482   -1479   -1500      18
    1449    1473   -1476   -1497      18    1452    1458   -1455   -1494      18
    1449    1455   -1452   -1491      18    1437    1443   -1440   -1488      18
    1434    1440   -1437   -1485      18    1350    1386   -1389   -1419      18
    1359    1389   -1386   -1416      18    1365    1380   -1383   -1413      18
    1374    1383   -1380   -1410      18    1368    1374   -1371   -1407      18
    1365    1371   -1368   -1404      18    1353    1359   -1356   -1401      18
    1350    1356   -1353   -1398      18    1350    1392   -1347   -1395      18
    3969    4005   -4008   -4038      18    3978    4008   -4005   -4035      18
    3984    3999   -4002   -4032      18    3993    4002   -3999   -4029      18
    3993    4023   -3996   -4026      18    3987    3993   -3990   -4020      18
    3984    3990   -3987   -4017      18    3972    3978   -3975   -4014      18
    3969    3975   -3972   -4011      18    3906    3945   -3942   -3963      18
    3912    3936   -3939   -3960      18    3915    3921   -3918   -3957      18
    3912    3918   -3915   -3954      18    3900    3906   -3903   -3951      18
    3897    3903   -3900   -3948      18    3786    3801   -3843   -3882      18
    3819    3834   -3840   -3879      18    3822    3828   -3825   -3870      18
    3819    3825   -3822   -3867      18    3804    3813   -3810   -3852      18
    3792    3801   -3798   -3849      18    3786    3792   -3789   -3846      18
    3723    3762   -3759   -3780      18    3729    3753   -3756   -3777      18
    3732    3738   -3735   -3774      18    3729    3735   -3732   -3771      18
    3717    3723   -3720   -3768      18    3714    3720   -3717   -3765      18
    3636    3672   -3675   -3699      18    3645    3675   -3672   -3696      18
    3651    3666   -3669   -3693      18    3660    3669   -3666   -3690      18
    3654    3660   -3657   -3687      18    3651    3657   -3654   -3684      18
    3639    3645   -3642   -3681      18    3636    3642   -3639   -3678      18
    3573    3612   -3609   -3630      18    3579    3603   -3606   -3627      18
    3582    3588   -3585   -3624      18    3579    3585   -3582   -3621      18
    3567    3573   -3570   -3618      18    3564    3570   -3567   -3615      18
    3486    3522   -3525   -3549      18    3495    3525   -3522   -3546      18
    3501    3516   -3519   -3543      18    3510    3519   -3516   -3540      18
    3504    3510   -3507   -3537      18    3501    3507   -3504   -3534      18
    3489    3495   -3492   -3531      18    3486    3492   -3489   -3528      18
    3423    3462   -3459   -3480      18    3429    3453   -3456   -3477      18
    3432    3438   -3435   -3474      18    3429    3435   -3432   -3471      18
    3417    3423   -3420   -3468      18    3414    3420   -3417   -3465      18
    3336    3372   -3375   -3399      18    3345    3375   -3372   -3396      18
    3351    3366   -3369   -3393      18    3360    3369   -3366   -3390      18
    3354    3360   -3357   -3387      18    3351    3357   -3354   -3384      18
    3339    3345   -3342   -3381      18    3336    3342   -3339   -3378      18
    3273    3312   -3309   -3330      18    3279    3303   -3306   -3327      18
    3282    3288   -3285   -3324      18    3279    3285   -3282   -3321      18
    3267    3273   -3270   -3318      18    3264    3270   -3267   -3315      18
    3186    3222   -3225   -3249      18    3195    3225   -3222   -3246      18
    3201    3216   -3219   -3243      18    3210    3219   -3216   -3240      18
    3204    3210   -3207   -3237      18    3201    3207   -3204   -3234      18
    3189    3195   -3192   -3231      18    3186    3192   -3189   -3228      18
    3123    3162   -3159   -3180      18    3129    3153   -3156   -3177      18
    3132    3138   -3135   -3174      18    3129    3135   -3132   -3171      18
    3117    3123   -3120   -3168      18    3114    3120   -3117   -3165      18
    3036    3072   -3075   -3099      18    3045    3075   -3072   -3096      18
    3051    3066   -3069   -3093      18    3060    3069   -3066   -3090      18
    3054    3060   -3057   -3087      18    3051    3057   -3054   -3084      18
    3039    3045   -3042   -3081      18    3036    3042   -3039   -3078      18
    2973    3012   -3009   -3030      18    2979    3003   -3006   -3027      18
    2982    2988   -2985   -3024      18    2979    2985   -2982   -3021      18
    2967    2973   -2970   -3018      18    2964    2970   -2967   -3015      18
    2853    2868   -2910   -2949      18    2886    2901   -2907   -2946      18
    2889    2895   -2892   -2937      18    2886    2892   -2889   -2934      18
    2871    2880   -2877   -2919      18    2859    2868   -2865   -2916      18
    2853    2859   -2856   -2913      18    2790    2829   -2826   -2847      18
    2796    2820   -2823   -2844      18    2799    2805   -2802   -2841      18
    2796    2802   -2799   -2838      18    2784    2790   -2787   -2835      18
    2781    2787   -2784   -2832      18    2697    2733   -2736   -2766      18
    2706    2736   -2733   -2763      18    2712    2727   -2730   -2760      18
    2721    2730   -2727   -2757      18    2715    2721   -2718   -2754      18
    2712    2718   -2715   -2751      18    2700    2706   -2703   -2748      18
    2697    2703   -2700   -2745      18    2697    2739   -2694   -2742      18
    5316    5352   -5355   -5385      18    5325    5355   -5352   -5382      18
    5331    5346   -5349   -5379      18    5340    5349   -5346   -5376      18
    5340    5370   -5343   -5373      18    5334    5340   -5337   -5367      18
    5331    5337   -5334   -5364      18    5319    5325   -5322   -5361      18
    5316    5322   -5319   -5358      18    5253    5292   -5289   -5310      18
    5259    5283   -5286   -5307      18    5262    5268   -5265   -5304      18
    5259    5265   -5262   -5301      18    5247    5253   -5250   -5298      18
    5244    5250   -5247   -5295      18    5133    5148   -5190   -5229      18
    5166    5181   -5187   -5226      18    5169    5175   -5172   -5217      18
    5166    5172   -5169   -5214      18    5151    5160   -5157   -5199      18
    5139    5148   -5145   -5196      18    5133    5139   -5136   -5193      18
    5070    5109   -5106   -5127      18    5076    5100   -5103   -5124      18
    5079    5085   -5082   -5121      18    5076    5082   -5079   -5118      18
    5064    5070   -5067   -5115      18    5061    5067   -5064   -5112      18
    4983    5019   -5022   -5046      18    4992    5022   -5019   -5043      18
    4998    5013   -5016   -5040      18    5007    5016   -5013   -5037      18
    5001    5007   -5004   -5034      18    4998    5004   -5001   -5031      18
    4986    4992   -4989   -5028      18    4983    4989   -4986   -5025      18
    4920    4959   -4956   -4977      18    4926    4950   -4953   -4974      18
    4929    4935   -4932   -4971      18    4926    4932   -4929   -4968      18
    4914    4920   -4917   -4965      18    4911    4917   -4914   -4962      18
    4833    4869   -4872   -4896      18    4842    4872   -4869   -4893      18
    4848    4863   -4866   -4890      18    4857    4866   -4863   -4887      18
    4851    4857   -4854   -4884      18    4848    4854   -4851   -4881      18
    4836    4842   -4839   -4878      18    4833    4839   -4836   -4875      18
    4770    4809   -4806   -4827      18    4776    4800   -4803   -4824      18
    4779    4785   -4782   -4821      18    4776    4782   -4779   -4818      18
    4764    4770   -4767   -4815      18    4761    4767   -4764   -4812      18
    4683    4719   -4722   -4746      18    4692    4722   -4719   -4743      18
    4698    4713   -4716   -4740      18    4707    4716   -4713   -4737      18
    4701    4707   -4704   -4734      18    4698    4704   -4701   -4731      18
    4686    4692   -4689   -4728      18    4683    4689   -4686   -4725      18
    4620    4659   -4656   -4677      18    4626    4650   -4653   -4674      18
    4629    4635   -4632   -4671      18    4626    4632   -4629   -4668      18
    4614    4620   -4617   -4665      18    4611    4617   -4614   -4662      18
    4533    4569   -4572   -4596      18    4542    4572   -4569   -4593      18
    4548    4563   -4566   -4590      18    4557    4566   -4563   -4587      18
    4551    4557   -4554   -4584      18    4548    4554   -4551   -4581      18
    4536    4542   -4539   -4578      18    4533    4539   -4536   -4575      18
    4470    4509   -4506   -4527      18    4476    4500   -4503   -4524      18
    4479    4485   -4482   -4521      18    4476    4482   -4479   -4518      18
    4464    4470   -4467   -4515      18    4461    4467   -4464   -4512      18
    4383    4419   -4422   -4446      18    4392    4422   -4419   -4443      18
    4398    4413   -4416   -4440      18    4407    4416   -4413   -4437      18
    4401    4407   -4404   -4434      18    4398    4404   -4401   -4431      18
    4386    4392   -4389   -4428      18    4383    4389   -4386   -4425      18
    4320    4359   -4356   -4377      18    4326    4350   -4353   -4374      18
    4329    4335   -4332   -4371      18    4326    4332   -4329   -4368      18
    4314    4320   -4317   -4365      18    4311    4317   -4314   -4362      18
    4200    4215   -4257   -4296      18    4233    4248   -4254   -4293      18
    4236    4242   -4239   -4284      18    4233    4239   -4236   -4281      18
    4218    4227   -4224   -4266      18    4206    4215   -4212   -4263      18
    4200    4206   -4203   -4260      18    4137    4176   -4173   -4194      18
    4143    4167   -4170   -4191      18    4146    4152   -4149   -4188      18
    4143    4149   -4146   -4185      18    4131    4137   -4134   -4182      18
    4128    4134   -4131   -4179      18    4044    4080   -4083   -4113      18
    4053    4083   -4080   -4110      18    4059    4074   -4077   -4107      18
    4068    4077   -4074   -4104      18    4062    4068   -4065   -4101      18
    4059    4065   -4062   -4098      18    4047    4053   -4050   -4095      18
    4044    4050   -4047   -4092      18    4044    4086   -4041   -4089      18
    6663    6699   -6702   -6732      18    6672    6702   -6699   -6729      18
    6678    6693   -6696   -6726      18    6687    6696   -6693   -6723      18
    6687    6717   -6690   -6720      18    6681    6687   -6684   -6714      18
    6678    6684   -6681   -6711      18    6666    6672   -6669   -6708      18
    6663    6669   -6666   -6705      18    6600    6639   -6636   -6657      18
    6606    6630   -6633   -6654      18    6609    6615   -6612   -6651      18
    6606    6612   -6609   -6648      18    6594    6600   -6597   -6645      18
    6591    6597   -6594   -6642      18    6480    6495   -6537   -6576      18
    6513    6528   -6534   -6573      18    6516    6522   -6519   -6564      18
    6513    6519   -6516   -6561      18    6498    6507   -6504   -6546      18
    6486    6495   -6492   -6543      18    6480    6486   -6483   -6540      18
    6417    6456   -6453   -6474      18    6423    6447   -6450   -6471      18
    6426    6432   -6429   -6468      18    6423    6429   -6426   -6465      18
    6411    6417   -6414   -6462      18    6408    6414   -6411   -6459      18
    6330    6366   -6369   -6393      18    6339    6369   -6366   -6390      18
    6345    6360   -6363   -6387      18    6354    6363   -6360   -6384      18
    6348    6354   -6351   -6381      18    6345    6351   -6348   -6378      18
    6333    6339   -6336   -6375      18    6330    6336   -6333   -6372      18
    6267    6306   -6303   -6324      18    6273    6297   -6300   -6321      18
    6276    6282   -6279   -6318      18    6273    6279   -6276   -6315      18
    6261    6267   -6264   -6312      18    6258    6264   -6261   -6309      18
    6180    6216   -6219   -6243      18    6189    6219   -6216   -6240      18
    6195    6210   -6213   -6237      18    6204    6213   -6210   -6234      18
    6198    6204   -6201   -6231      18    6195    6201   -6198   -6228      18
    6183    6189   -6186   -6225      18    6180    6186   -6183   -6222      18
    6117    6156   -6153   -6174      18    6123    6147   -6150   -6171      18
    6126    6132   -6129   -6168      18    6123    6129   -6126   -6165      18
    6111    6117   -6114   -6162      18    6108    6114   -6111   -6159      18
    6030    6066   -6069   -6093      18    6039    6069   -6066   -6090      18
    6045    6060   -6063   -6087      18    6054    6063   -6060   -6084      18
    6048    6054   -6051   -6081      18    6045    6051   -6048   -6078      18
    6033    6039   -6036   -6075      18    6030    6036   -6033   -6072      18
    5967    6006   -6003   -6024      18    5973    5997   -6000   -6021      18
    5976    5982   -5979   -6018      18    5973    5979   -5976   -6015      18
    5961    5967   -5964   -6012      18    5958    5964   -5961   -6009      18
    5880    5916   -5919   -5943      18    5889    5919   -5916   -5940      18
    5895    5910   -5913   -5937      18    5904    5913   -5910   -5934      18
    5898    5904   -5901   -5931      18    5895    5901   -5898   -5928      18
    5883    5889   -5886   -5925      18    5880    5886   -5883   -5922      18
    5817    5856   -5853   -5874      18    5823    5847   -5850   -5871      18
    5826    5832   -5829   -5868      18    5823    5829   -5826   -5865      18
    5811    5817   -5814   -5862      18    5808    5814   -5811   -5859      18
    5730    5766   -5769   -5793      18    5739    5769   -5766   -5790      18
    5745    5760   -5763   -5787      18    5754    5763   -5760   -5784      18
    5748    5754   -5751   -5781      18    5745    5751   -5748   -5778      18
    5733    5739   -5736   -5775      18    5730    5736   -5733   -5772      18
    5667    5706   -5703   -5724      18    5673    5697   -5700   -5721      18
    5676    5682   -5679   -5718      18    5673    5679   -5676   -5715      18
    5661    5667   -5664   -5712      18    5658    5664   -5661   -5709      18
    5547    5562   -5604   -5643      18    5580    5595   -5601   -5640      18
    5583    5589   -5586   -5631      18    5580    5586   -5583   -5628      18
    5565    5574   -5571   -5613      18    5553    5562   -5559   -5610      18
    5547    5553   -5550   -5607      18    5484    5523   -5520   -5541      18
    5490    5514   -5517   -5538      18    5493    5499   -5496   -5535      18
    5490    5496   -5493   -5532      18    5478    5484   -5481   -5529      18
    5475    5481   -5478   -5526      18    5391    5427   -5430   -5460      18
    5400    5430   -5427   -5457      18    5406    5421   -5424   -5454      18
    5415    5424   -5421   -5451      18    5409    5415   -5412   -5448      18
    5406    5412   -5409   -5445      18    5394    5400   -5397   -5442      18
    5391    5397   -5394   -5439      18    5391    5433   -5388   -5436      18
    8010    8046   -8049   -8079      18    8019    8049   -8046   -8076      18
    8025    8040   -8043   -8073      18    8034    8043   -8040   -8070      18
    8034    8064   -8037   -8067      18    8028    8034   -8031   -8061      18
    8025    8031   -8028   -8058      18    8013    8019   -8016   -8055      18
    8010    8016   -8013   -8052      18    7947    7986   -7983   -8004      18
    7953    7977   -7980   -8001      18    7956    7962   -7959   -7998      18
    7953    7959   -7956   -7995      18    7941    7947   -7944   -7992      18
    7938    7944   -7941   -7989      18    7827    7842   -7884   -7923      18
    7860    7875   -7881   -7920      18    7863    7869   -7866   -7911      18
    7860    7866   -7863   -7908      18    7845    7854   -7851   -7893      18
    7833    7842   -7839   -7890      18    7827    7833   -7830   -7887      18
    7764    7803   -7800   -7821      18    7770    7794   -7797   -7818      18
    7773    7779   -7776   -7815      18    7770    7776   -7773   -7812      18
    7758    7764   -7761   -7809      18    7755    7761   -7758   -7806      18
    7677    7713   -7716   -7740      18    7686    7716   -7713   -7737      18
    7692    7707   -7710   -7734      18    7701    7710   -7707   -7731      18
    7695    7701   -7698   -7728      18    7692    7698   -7695   -7725      18
    7680    7686   -7683   -7722      18    7677    7683   -7680   -7719      18
    7614    7653   -7650   -7671      18    7620    7644   -7647   -7668      18
    7623    7629   -7626   -7665      18    7620    7626   -7623   -7662      18
    7608    7614   -7611   -7659      18    7605    7611   -7608   -7656      18
    7527    7563   -7566   -7590      18    7536    7566   -7563   -7587      18
    7542    7557   -7560   -7584      18    7551    7560   -7557   -7581      18
    7545    7551   -7548   -7578      18    7542    7548   -7545   -7575      18
    7530    7536   -7533   -7572      18    7527    7533   -7530   -7569      18
    7464    7503   -7500   -7521      18    7470    7494   -7497   -7518      18
    7473    7479   -7476   -7515      18    7470    7476   -7473   -7512      18
    7458    7464   -7461   -7509      18    7455    7461   -7458   -7506      18
    7377    7413   -7416   -7440      18    7386    7416   -7413   -7437      18
    7392    7407   -7410   -7434      18    7401    7410   -7407   -7431      18
    7395    7401   -7398   -7428      18    7392    7398   -7395   -7425      18
    7380    7386   -7383   -7422      18    7377    7383   -7380   -7419      18
    7314    7353   -7350   -7371      18    7320    7344   -7347   -7368      18
    7323    7329   -7326   -7365      18    7320    7326   -7323   -7362      18
    7308    7314   -7311   -7359      18    7305    7311   -7308   -7356      18
    7227    7263   -7266   -7290      18    7236    7266   -7263   -7287      18
    7242    7257   -7260   -7284      18    7251    7260   -7257   -7281      18
    7245    7251   -7248   -7278      18    7242    7248   -7245   -7275      18
    7230    7236   -7233   -7272      18    7227    7233   -7230   -7269      18
    7164    7203   -7200   -7221      18    7170    7194   -7197   -7218      18
    7173    7179   -7176   -7215      18    7170    7176   -7173   -7212      18
    7158    7164   -7161   -7209      18    7155    7161   -7158   -7206      18
    7077    7113   -7116   -7140      18    7086    7116   -7113   -7137      18
    7092    7107   -7110   -7134      18    7101    7110   -7107   -7131      18
    7095    7101   -7098   -7128      18    7092    7098   -7095   -7125      18
    7080    7086   -7083   -7122      18    7077    7083   -7080   -7119      18
    7014    7053   -7050   -7071      18    7020    7044   -7047   -7068      18
    7023    7029   -7026   -7065      18    7020    7026   -7023   -7062      18
    7008    7014   -7011   -7059      18    7005    7011   -7008   -7056      18
    6894    6909   -6951   -6990      18    6927    6942   -6948   -6987      18
    6930    6936   -6933   -6978      18    6927    6933   -6930   -6975      18
    6912    6921   -6918   -6960      18    6900    6909   -6906   -6957      18
    6894    6900   -6897   -6954      18    6831    6870   -6867   -6888      18
    6837    6861   -6864   -6885      18    6840    6846   -6843   -6882      18
    6837    6843   -6840   -6879      18    6825    6831   -6828   -6876      18
    6822    6828   -6825   -6873      18    6738    6774   -6777   -6807      18
    6747    6777   -6774   -6804      18    6753    6768   -6771   -6801      18
    6762    6771   -6768   -6798      18    6756    6762   -6759   -6795      18
    6753    6759   -6756   -6792      18    6741    6747   -6744   -6789      18
    6738    6744   -6741   -6786      18    6738    6780   -6735   -6783      18
%FLAG DIHEDRALS_WITHOUT_HYDROGEN                                                
%FORMAT(10I8)                                                                   
    1302    1299    1305    1308       1    1296    1293    1290    1308       1
    1296    1299   -1305    1308       1    1293    1290    1308    1305       1
    1293    1296    1299    1302       1    1293    1296   -1299    1305       1
    1290    1287    1284    1311       3    1290    1293    1296    1299       1
    1290    1308   -1305    1299       1    1287    1284    1311    1314       1
    1287    1290    1293    1296       1    1287    1290    1308    1305       1
    1284    1287    1290    1293       3    1284    1287    1290    1308       3
    1281    1278    1275    1314       1    1281    1284    1287    1290       3
    1281    1284   -1311    1314       1    1278    1275    1314    1311       1
    1278    1281    1284    1287       1    1278    1281   -1284    1311       1
    1275    1278    1281    1284       1    1275    1314   -1311    1284       1
    1272    1275    1278    1281       1    1272    1275    1314    1311       1
    1245    1242    1236    1272       4    1242    1236    1272    1275       5
    1242    1227   -1230    1272       4    1239    1236    1242    1245       6
    1239    1236    1272    1275       5    1236    1272    1275    1278       7
    1236    1272    1275    1314       7    1233    1230    1227    1242       6
    1233    1230    1272    1275       5    1233    1230    1272    1236       5
    1230    1227   -1242    1236       1    1230    1227    1242    1245       1
    1230    1272    1275    1278       7    1230    1272    1275    1314       7
    1230    1272    1236    1239       5    1230    1272   -1236    1242       5
    1227    1230    1272    1275       5    1227    1230   -1272    1236       5
    1227    1242    1236    1239       6    1227    1242   -1236    1272       4
    1224    1221    1218    1245       1    1224    1227    1230    1233       6
    1224    1227    1230    1272       4    1224    1227    1242    1236       1
    1224    1227   -1242    1245       1    1221    1218    1245    1242       1
    1221    1224    1227    1230       1    1221    1224   -1227    1242       1
    1218    1215    1212    1248       3    1218    1221    1224    1227       1
    1218    1245    1242    1236       1    1218    1245   -1242    1227       1
    1215    1212    1248    1251       1    1215    1218    1221    1224       1
    1215    1218    1245    1242       1    1212    1215    1218    1221       3
    1212    1215    1218    1245       3    1209    1206    1203    1251       1
    1209    1212    1215    1218       3    1209    1212   -1248    1251       1
    1206    1203    1251    1248       1    1206    1209    1212    1215       1
    1206    1209   -1212    1248       1    1203    1206    1209    1212       1
    1203    1251   -1248    1212       1    1200    1197    1203    1206       6
    1200    1197    1203    1251       6    1197    1203    1206    1209       1
    1197    1203    1251    1248       1    1197    1101   -1194    1251       5
    1194    1251    1248    1212       1    1194    1251   -1203    1197       1
    1194    1251    1203    1206       1    1194    1101    1197    1200       5
    1194    1101   -1197    1203       5    1191    1194    1251    1248       6
    1191    1194    1251    1203       6    1191    1194    1101    1197       5
    1137    1134    1140    1143       1    1137    1134    1140    1146       1
    1131    1128    1125    1146       1    1131    1134    1140    1143       1
    1131    1134   -1140    1146       1    1128    1125    1146    1140       1
    1128    1131    1134    1137       1    1128    1131   -1134    1140       1
    1125    1128    1131    1134       1    1125    1146   -1140    1134       1
    1125    1146    1140    1143       1    1122    1125    1128    1131       1
    1122    1125    1146    1140       1    1119    1122    1125    1128      12
    1119    1122    1125    1146      12    1116    1110    1107    1149       4
    1116    1119    1122    1125      13    1113    1110    1107    1149       6
    1113    1110    1116    1119       5    1110    1116    1119    1122      15
    1110    1116   -1119    1122      16    1110    1116   -1119    1122      17
    1107    1110    1116    1119       5    1104    1098    1101    1194       7
    1104    1098    1101    1197       7    1104    1107    1110    1113       6
    1104    1107    1110    1116       4    1101    1098    1104    1107       1
    1101    1194    1251    1248       4    1101    1194   -1251    1203       4
    1101    1197    1203    1206       4    1101    1197   -1203    1251       4
    1098    1095    1092    1149       1    1098    1101    1194    1191       5
    1098    1101    1194    1251       5    1098    1101    1197    1200       5
    1098    1101    1197    1203       5    1098    1104    1107    1110       1
    1098    1104   -1107    1149       1    1095    1092    1149    1107       1
    1095    1098    1101    1194       7    1095    1098    1101    1197       7
    1095    1098   -1104    1107       1    1092    1095    1098    1101       1
    1092    1095    1098    1104       1    1092    1149   -1107    1104       1
    1092    1149    1107    1110       1    1089    1092    1095    1098       1
    1089    1092    1149    1107       1    1062    1059    1053    1089       4
    1059    1053    1089    1092       5    1059    1044   -1047    1089       4
    1056    1053    1059    1062       6    1056    1053    1089    1092       5
    1053    1089    1092    1095       7    1053    1089    1092    1149       7
    1050    1047    1044    1059       6    1050    1047    1089    1092       5
    1050    1047    1089    1053       5    1047    1044   -1059    1053       1
    1047    1044    1059    1062       1    1047    1089    1092    1095       7
    1047    1089    1092    1149       7    1047    1089    1053    1056       5
    1047    1089   -1053    1059       5    1044    1047    1089    1092       5
    1044    1047   -1089    1053       5    1044    1059    1053    1056       6
    1044    1059   -1053    1089       4    1041    1038    1035    1062       1
    1041    1044    1047    1050       6    1041    1044    1047    1089       4
    1041    1044    1059    1053       1    1041    1044   -1059    1062       1
    1038    1035    1062    1059       1    1038    1041    1044    1047       1
    1038    1041   -1044    1059       1    1035    1032    1029    1065       3
    1035    1038    1041    1044       1    1035    1062    1059    1053       1
    1035    1062   -1059    1044       1    1032    1029    1065    1068       1
    1032    1035    1038    1041       1    1032    1035    1062    1059       1
    1029    1032    1035    1038       3    1029    1032    1035    1062       3
    1026    1023    1020    1068       1    1026    1029    1032    1035       3
    1026    1029   -1065    1068       1    1023    1020    1068    1065       1
    1023    1026    1029    1032       1    1023    1026   -1029    1065       1
    1020    1023    1026    1029       1    1020    1068   -1065    1029       1
    1017    1014    1020    1023       6    1017    1014    1020    1068       6
    1014    1020    1023    1026       1    1014    1020    1068    1065       1
    1014     969   -1011    1068       5    1011    1068    1065    1029       1
    1011    1068   -1020    1014       1    1011    1068    1020    1023       1
    1011     969    1014    1017       5    1011     969   -1014    1020       5
    1008    1011    1068    1065       6    1008    1011    1068    1020       6
    1008    1011     969    1014       5     972     966     969    1011       7
     972     966     969    1014       7     969     966     972     975       1
     969    1011    1068    1065       4     969    1011   -1068    1020       4
     969    1014    1020    1023       4     969    1014   -1020    1068       4
     966     969    1011    1008       5     966     969    1011    1068       5
     966     969    1014    1017       5     966     969    1014    1020       5
     963     960     957     975       1     963     966     969    1011       7
     963     966     969    1014       7     963     966    -972     975       1
     960     957     975     972       1     960     963     966     969       1
     960     963    -966     972       1     957     954     951     978       3
     957     960     963     966       1     957     975    -972     966       1
     954     951     978     981       1     954     957     960     963       1
     954     957     975     972       1     951     954     957     960       3
     951     954     957     975       3     948     945     942     981       1
     948     951     954     957       3     948     951    -978     981       1
     945     942     981     978       1     945     948     951     954       1
     945     948    -951     978       1     942     945     948     951       1
     942     981    -978     951       1     939     942     945     948       1
     939     942     981     978       1     912     909     903     939       4
     909     903     939     942       5     909     894    -897     939       4
     906     903     909     912       6     906     903     939     942       5
     903     939     942     945       7     903     939     942     981       7
     900     897     894     909       6     900     897     939     942       5
     900     897     939     903       5     897     894    -909     903       1
     897     894     909     912       1     897     939     942     945       7
     897     939     942     981       7     897     939     903     906       5
     897     939    -903     909       5     894     897     939     942       5
     894     897    -939     903       5     894     909     903     906       6
     894     909    -903     939       4     891     888     885     912       1
     891     894     897     900       6     891     894     897     939       4
     891     894     909     903       1     891     894    -909     912       1
     888     885     912     909       1     888     891     894     897       1
     888     891    -894     909       1     885     882     879     915       3
     885     888     891     894       1     885     912     909     903       1
     885     912    -909     894       1     882     879     915     918       1
     882     885     888     891       1     882     885     912     909       1
     879     882     885     888       3     879     882     885     912       3
     876     873     870     918       1     876     879     882     885       3
     876     879    -915     918       1     873     870     918     915       1
     873     876     879     882       1     873     876    -879     915       1
     870     873     876     879       1     870     918    -915     879       1
     867     864     870     873       6     867     864     870     918       6
     864     870     873     876       1     864     870     918     915       1
     864     819    -861     918       5     861     918     915     879       1
     861     918    -870     864       1     861     918     870     873       1
     861     819     864     867       5     861     819    -864     870       5
     858     861     918     915       6     858     861     918     870       6
     858     861     819     864       5     822     816     819     861       7
     822     816     819     864       7     819     816     822     825       1
     819     861     918     915       4     819     861    -918     870       4
     819     864     870     873       4     819     864    -870     918       4
     816     819     861     858       5     816     819     861     918       5
     816     819     864     867       5     816     819     864     870       5
     813     810     807     825       1     813     816     819     861       7
     813     816     819     864       7     813     816    -822     825       1
     810     807     825     822       1     810     813     816     819       1
     810     813    -816     822       1     807     804     801     828       3
     807     810     813     816       1     807     825    -822     816       1
     804     801     828     831       1     804     807     810     813       1
     804     807     825     822       1     801     804     807     810       3
     801     804     807     825       3     798     795     792     831       1
     798     801     804     807       3     798     801    -828     831       1
     795     792     831     828       1     795     798     801     804       1
     795     798    -801     828       1     792     795     798     801       1
     792     831    -828     801       1     789     792     795     798       1
     789     792     831     828       1     762     759     753     789       4
     759     753     789     792       5     759     744    -747     789       4
     756     753     759     762       6     756     753     789     792       5
     753     789     792     795       7     753     789     792     831       7
     750     747     744     759       6     750     747     789     792       5
     750     747     789     753       5     747     744    -759     753       1
     747     744     759     762       1     747     789     792     795       7
     747     789     792     831       7     747     789     753     756       5
     747     789    -753     759       5     744     747     789     792       5
     744     747    -789     753       5     744     759     753     756       6
     744     759    -753     789       4     741     738     735     762       1
     741     744     747     750       6     741     744     747     789       4
     741     744     759     753       1     741     744    -759     762       1
     738     735     762     759       1     738     741     744     747       1
     738     741    -744     759       1     735     732     729     765       3
     735     738     741     744       1     735     762     759     753       1
     735     762    -759     744       1     732     729     765     768       1
     732     735     738     741       1     732     735     762     759       1
     729     732     735     738       3     729     732     735     762       3
     726     723     720     768       1     726     729     732     735       3
     726     729    -765     768       1     723     720     768     765       1
     723     726     729     732       1     723     726    -729     765       1
     720     723     726     729       1     720     768    -765     729       1
     717     714     720     723       6     717     714     720     768       6
     714     720     723     726       1     714     720     768     765       1
     714     669    -711     768       5     711     768     765     729       1
     711     768    -720     714       1     711     768     720     723       1
     711     669     714     717       5     711     669    -714     720       5
     708     711     768     765       6     708     711     768     720       6
     708     711     669     714       5     672     666     669     711       7
     672     666     669     714       7     669     666     672     675       1
     669     711     768     765       4     669     711    -768     720       4
     669     714     720     723       4     669     714    -720     768       4
     666     669     711     708       5     666     669     711     768       5
     666     669     714     717       5     666     669     714     720       5
     663     660     657     675       1     663     666     669     711       7
     663     666     669     714       7     663     666    -672     675       1
     660     657     675     672       1     660     663     666     669       1
     660     663    -666     672       1     657     654     651     678       3
     657     660     663     666       1     657     675    -672     666       1
     654     651     678     681       1     654     657     660     663       1
     654     657     675     672       1     651     654     657     660       3
     651     654     657     675       3     648     645     642     681       1
     648     651     654     657       3     648     651    -678     681       1
     645     642     681     678       1     645     648     651     654       1
     645     648    -651     678       1     642     645     648     651       1
     642     681    -678     651       1     639     642     645     648       1
     639     642     681     678       1     612     609     603     639       4
     609     603     639     642       5     609     594    -597     639       4
     606     603     609     612       6     606     603     639     642       5
     603     639     642     645       7     603     639     642     681       7
     600     597     594     609       6     600     597     639     642       5
     600     597     639     603       5     597     594    -609     603       1
     597     594     609     612       1     597     639     642     645       7
     597     639     642     681       7     597     639     603     606       5
     597     639    -603     609       5     594     597     639     642       5
     594     597    -639     603       5     594     609     603     606       6
     594     609    -603     639       4     591     588     585     612       1
     591     594     597     600       6     591     594     597     639       4
     591     594     609     603       1     591     594    -609     612       1
     588     585     612     609       1     588     591     594     597       1
     588     591    -594     609       1     585     582     579     615       3
     585     588     591     594       1     585     612     609     603       1
     585     612    -609     594       1     582     579     615     618       1
     582     585     588     591       1     582     585     612     609       1
     579     582     585     588       3     579     582     585     612       3
     576     573     570     618       1     576     579     582     585       3
     576     579    -615     618       1     573     570     618     615       1
     573     576     579     582       1     573     576    -579     615       1
     570     573     576     579       1     570     618    -615     579       1
     567     564     570     573       6     567     564     570     618       6
     564     570     573     576       1     564     570     618     615       1
     564     519    -561     618       5     561     618     615     579       1
     561     618    -570     564       1     561     618     570     573       1
     561     519     564     567       5     561     519    -564     570       5
     558     561     618     615       6     558     561     618     570       6
     558     561     519     564       5     522     516     519     561       7
     522     516     519     564       7     519     516     522     525       1
     519     561     618     615       4     519     561    -618     570       4
     519     564     570     573       4     519     564    -570     618       4
     516     519     561     558       5     516     519     561     618       5
     516     519     564     567       5     516     519     564     570       5
     513     510     507     525       1     513     516     519     561       7
     513     516     519     564       7     513     516    -522     525       1
     510     507     525     522       1     510     513     516     519       1
     510     513    -516     522       1     507     504     501     528       3
     507     510     513     516       1     507     525    -522     516       1
     504     501     528     531       1     504     507     510     513       1
     504     507     525     522       1     501     504     507     510       3
     501     504     507     525       3     498     495     492     531       1
     498     501     504     507       3     498     501    -528     531       1
     495     492     531     528       1     495     498     501     504       1
     495     498    -501     528       1     492     495     498     501       1
     492     531    -528     501       1     489     492     495     498       1
     489     492     531     528       1     462     459     453     489       4
     459     453     489     492       5     459     444    -447     489       4
     456     453     459     462       6     456     453     489     492       5
     453     489     492     495       7     453     489     492     531       7
     450     447     444     459       6     450     447     489     492       5
     450     447     489     453       5     447     444    -459     453       1
     447     444     459     462       1     447     489     492     495       7
     447     489     492     531       7     447     489     453     456       5
     447     489    -453     459       5     444     447     489     492       5
     444     447    -489     453       5     444     459     453     456       6
     444     459    -453     489       4     441     438     435     462       1
     441     444     447     450       6     441     444     447     489       4
     441     444     459     453       1     441     444    -459     462       1
     438     435     462     459       1     438     441     444     447       1
     438     441    -444     459       1     435     432     429     465       3
     435     438     441     444       1     435     462     459     453       1
     435     462    -459     444       1     432     429     465     468       1
     432     435     438     441       1     432     435     462     459       1
     429     432     435     438       3     429     432     435     462       3
     426     423     420     468       1     426     429     432     435       3
     426     429    -465     468       1     423     420     468     465       1
     423     426     429     432       1     423     426    -429     465       1
     420     423     426     429       1     420     468    -465     429       1
     417     414     420     423       6     417     414     420     468       6
     414     420     423     426       1     414     420     468     465       1
     414     369    -411     468       5     411     468     465     429       1
     411     468    -420     414       1     411     468     420     423       1
     411     369     414     417       5     411     369    -414     420       5
     408     411     468     465       6     408     411     468     420       6
     408     411     369     414       5     372     366     369     411       7
     372     366     369     414       7     369     366     372     375       1
     369     411     468     465       4     369     411    -468     420       4
     369     414     420     423       4     369     414    -420     468       4
     366     369     411     408       5     366     369     411     468       5
     366     369     414     417       5     366     369     414     420       5
     363     360     357     375       1     363     366     369     411       7
     363     366     369     414       7     363     366    -372     375       1
     360     357     375     372       1     360     363     366     369       1
     360     363    -366     372       1     357     354     351     378       3
     357     360     363     366       1     357     375    -372     366       1
     354     351     378     381       1     354     357     360     363       1
     354     357     375     372       1     351     354     357     360       3
     351     354     357     375       3     348     345     342     381       1
     348     351     354     357       3     348     351    -378     381       1
     345     342     381     378       1     345     348     351     354       1
     345     348    -351     378       1     342     345     348     351       1
     342     381    -378     351       1     339     342     345     348       1
     339     342     381     378       1     312     309     303     339       4
     309     303     339     342       5     309     294    -297     339       4
     306     303     309     312       6     306     303     339     342       5
     303     339     342     345       7     303     339     342     381       7
     300     297     294     309       6     300     297     339     342       5
     300     297     339     303       5     297     294    -309     303       1
     297     294     309     312       1     297     339     342     345       7
     297     339     342     381       7     297     339     303     306       5
     297     339    -303     309       5     294     297     339     342       5
     294     297    -339     303       5     294     309     303     306       6
     294     309    -303     339       4     291     288     285     312       1
     291     294     297     300       6     291     294     297     339       4
     291     294     309     303       1     291     294    -309     312       1
     288     285     312     309       1     288     291     294     297       1
     288     291    -294     309       1     285     282     279     315       3
     285     288     291     294       1     285     312     309     303       1
     285     312    -309     294       1     282     279     315     318       1
     282     285     288     291       1     282     285     312     309       1
     279     282     285     288       3     279     282     285     312       3
     276     273     270     318       1     276     279     282     285       3
     276     279    -315     318       1     273     270     318     315       1
     273     276     279     282       1     273     276    -279     315       1
     270     273     276     279       1     270     318    -315     279       1
     267     264     270     273       6     267     264     270     318       6
     264     270     273     276       1     264     270     318     315       1
     264     168    -261     318       5     261     318     315     279       1
     261     318    -270     264       1     261     318     270     273       1
     261     168     264     267       5     261     168    -264     270       5
     258     261     318     315       6     258     261     318     270       6
     258     261     168     264       5     204     201     207     210       1
     204     201     207     213       1     198     195     192     213       1
     198     201     207     210       1     198     201    -207     213       1
     195     192     213     207       1     195     198     201     204       1
     195     198    -201     207       1     192     195     198     201       1
     192     213    -207     201       1     192     213     207     210       1
     189     192     195     198       1     189     192     213     207       1
     186     189     192     195      12     186     189     192     213      12
     183     177     174     216       4     183     186     189     192      13
     180     177     174     216       6     180     177     183     186       5
     177     183     186     189      15     177     183    -186     189      16
     177     183    -186     189      17     174     177     183     186       5
     171     165     168     261       7     171     165     168     264       7
     171     174     177     180       6     171     174     177     183       4
     168     165     171     174       1     168     261     318     315       4
     168     261    -318     270       4     168     264     270     273       4
     168     264    -270     318       4     165     162     159     216       1
     165     168     261     258       5     165     168     261     318       5
     165     168     264     267       5     165     168     264     270       5
     165     171     174     177       1     165     171    -174     216       1
     162     159     216     174       1     162     165     168     261       7
     162     165     168     264       7     162     165    -171     174       1
     159     162     165     168       1     159     162     165     171       1
     159     216    -174     171       1     159     216     174     177       1
     156     159     162     165       1     156     159     216     174       1
     129     126     120     156       4     126     120     156     159       5
     126     111    -114     156       4     123     120     126     129       6
     123     120     156     159       5     120     156     159     162       7
     120     156     159     216       7     117     114     111     126       6
     117     114     156     159       5     117     114     156     120       5
     114     111    -126     120       1     114     111     126     129       1
     114     156     159     162       7     114     156     159     216       7
     114     156     120     123       5     114     156    -120     126       5
     111     114     156     159       5     111     114    -156     120       5
     111     126     120     123       6     111     126    -120     156       4
     108     105     102     129       1     108     111     114     117       6
     108     111     114     156       4     108     111     126     120       1
     108     111    -126     129       1     105     102     129     126       1
     105     108     111     114       1     105     108    -111     126       1
     102      99      96     132       3     102     105     108     111       1
     102     129     126     120       1     102     129    -126     111       1
      99      96     132     135       1      99     102     105     108       1
      99     102     129     126       1      96      99     102     105       3
      96      99     102     129       3      93      90      87     135       1
      93      96      99     102       3      93      96    -132     135       1
      90      87     135     132       1      90      93      96      99       1
      90      93     -96     132       1      87      90      93      96       1
      87     135    -132      96       1      84      81      87      90       6
      84      81      87     135       6      81      87      90      93       1
      81      87     135     132       1      81      30     -78     135       5
      78     135     132      96       1      78     135     -87      81       1
      78     135      87      90       1      78      30      81      84       5
      78      30     -81      87       5      75      78     135     132       6
      75      78     135      87       6      75      78      30      81       5
      33      27      30      78       7      33      27      30      81       7
      30      27      33      36       1      30      78     135     132       4
      30      78    -135      87       4      30      81      87      90       4
      30      81     -87     135       4      27      30      78      75       5
      27      30      78     135       5      27      30      81      84       5
      27      30      81      87       5      24      21      18      36       1
      24      27      30      78       7      24      27      30      81       7
      24      27     -33      36       1      21      18      36      33       1
      21      24      27      30       1      21      24     -27      33       1
      18      15      12      39       3      18      21      24      27       1
      18      36     -33      27       1      15      12      39      42       1
      15      18      21      24       1      15      18      36      33       1
      12      15      18      21       3      12      15      18      36       3
       9       6       3      42       1       9      12      15      18       3
       9      12     -39      42       1       6       3      42      39       1
       6       9      12      15       1       6       9     -12      39       1
       3       6       9      12       1       3      42     -39      12       1
       0       3       6       9       1       0       3      42      39       1
    2649    2646    2652    2655       1    2643    2640    2637    2655       1
    2643    2646   -2652    2655       1    2640    2637    2655    2652       1
    2640    2643    2646    2649       1    2640    2643   -2646    2652       1
    2637    2634    2631    2658       3    2637    2640    2643    2646       1
    2637    2655   -2652    2646       1    2634    2631    2658    2661       1
    2634    2637    2640    2643       1    2634    2637    2655    2652       1
    2631    2634    2637    2640       3    2631    2634    2637    2655       3
    2628    2625    2622    2661       1    2628    2631    2634    2637       3
    2628    2631   -2658    2661       1    2625    2622    2661    2658       1
    2625    2628    2631    2634       1    2625    2628   -2631    2658       1
    2622    2625    2628    2631       1    2622    2661   -2658    2631       1
    2619    2622    2625    2628       1    2619    2622    2661    2658       1
    2592    2589    2583    2619       4    2589    2583    2619    2622       5
    2589    2574   -2577    2619       4    2586    2583    2589    2592       6
    2586    2583    2619    2622       5    2583    2619    2622    2625       7
    2583    2619    2622    2661       7    2580    2577    2574    2589       6
    2580    2577    2619    2622       5    2580    2577    2619    2583       5
    2577    2574   -2589    2583       1    2577    2574    2589    2592       1
    2577    2619    2622    2625       7    2577    2619    2622    2661       7
    2577    2619    2583    2586       5    2577    2619   -2583    2589       5
    2574    2577    2619    2622       5    2574    2577   -2619    2583       5
    2574    2589    2583    2586       6    2574    2589   -2583    2619       4
    2571    2568    2565    2592       1    2571    2574    2577    2580       6
    2571    2574    2577    2619       4    2571    2574    2589    2583       1
    2571    2574   -2589    2592       1    2568    2565    2592    2589       1
    2568    2571    2574    2577       1    2568    2571   -2574    2589       1
    2565    2562    2559    2595       3    2565    2568    2571    2574       1
    2565    2592    2589    2583       1    2565    2592   -2589    2574       1
    2562    2559    2595    2598       1    2562    2565    2568    2571       1
    2562    2565    2592    2589       1    2559    2562    2565    2568       3
    2559    2562    2565    2592       3    2556    2553    2550    2598       1
    2556    2559    2562    2565       3    2556    2559   -2595    2598       1
    2553    2550    2598    2595       1    2553    2556    2559    2562       1
    2553    2556   -2559    2595       1    2550    2553    2556    2559       1
    2550    2598   -2595    2559       1    2547    2544    2550    2553       6
    2547    2544    2550    2598       6    2544    2550    2553    2556       1
    2544    2550    2598    2595       1    2544    2448   -2541    2598       5
    2541    2598    2595    2559       1    2541    2598   -2550    2544       1
    2541    2598    2550    2553       1    2541    2448    2544    2547       5
    2541    2448   -2544    2550       5    2538    2541    2598    2595       6
    2538    2541    2598    2550       6    2538    2541    2448    2544       5
    2484    2481    2487    2490       1    2484    2481    2487    2493       1
    2478    2475    2472    2493       1    2478    2481    2487    2490       1
    2478    2481   -2487    2493       1    2475    2472    2493    2487       1
    2475    2478    2481    2484       1    2475    2478   -2481    2487       1
    2472    2475    2478    2481       1    2472    2493   -2487    2481       1
    2472    2493    2487    2490       1    2469    2472    2475    2478       1
    2469    2472    2493    2487       1    2466    2469    2472    2475      12
    2466    2469    2472    2493      12    2463    2457    2454    2496       4
    2463    2466    2469    2472      13    2460    2457    2454    2496       6
    2460    2457    2463    2466       5    2457    2463    2466    2469      15
    2457    2463   -2466    2469      16    2457    2463   -2466    2469      17
    2454    2457    2463    2466       5    2451    2445    2448    2541       7
    2451    2445    2448    2544       7    2451    2454    2457    2460       6
    2451    2454    2457    2463       4    2448    2445    2451    2454       1
    2448    2541    2598    2595       4    2448    2541   -2598    2550       4
    2448    2544    2550    2553       4    2448    2544   -2550    2598       4
    2445    2442    2439    2496       1    2445    2448    2541    2538       5
    2445    2448    2541    2598       5    2445    2448    2544    2547       5
    2445    2448    2544    2550       5    2445    2451    2454    2457       1
    2445    2451   -2454    2496       1    2442    2439    2496    2454       1
    2442    2445    2448    2541       7    2442    2445    2448    2544       7
    2442    2445   -2451    2454       1    2439    2442    2445    2448       1
    2439    2442    2445    2451       1    2439    2496   -2454    2451       1
    2439    2496    2454    2457       1    2436    2439    2442    2445       1
    2436    2439    2496    2454       1    2409    2406    2400    2436       4
    2406    2400    2436    2439       5    2406    2391   -2394    2436       4
    2403    2400    2406    2409       6    2403    2400    2436    2439       5
    2400    2436    2439    2442       7    2400    2436    2439    2496       7
    2397    2394    2391    2406       6    2397    2394    2436    2439       5
    2397    2394    2436    2400       5    2394    2391   -2406    2400       1
    2394    2391    2406    2409       1    2394    2436    2439    2442       7
    2394    2436    2439    2496       7    2394    2436    2400    2403       5
    2394    2436   -2400    2406       5    2391    2394    2436    2439       5
    2391    2394   -2436    2400       5    2391    2406    2400    2403       6
    2391    2406   -2400    2436       4    2388    2385    2382    2409       1
    2388    2391    2394    2397       6    2388    2391    2394    2436       4
    2388    2391    2406    2400       1    2388    2391   -2406    2409       1
    2385    2382    2409    2406       1    2385    2388    2391    2394       1
    2385    2388   -2391    2406       1    2382    2379    2376    2412       3
    2382    2385    2388    2391       1    2382    2409    2406    2400       1
    2382    2409   -2406    2391       1    2379    2376    2412    2415       1
    2379    2382    2385    2388       1    2379    2382    2409    2406       1
    2376    2379    2382    2385       3    2376    2379    2382    2409       3
    2373    2370    2367    2415       1    2373    2376    2379    2382       3
    2373    2376   -2412    2415       1    2370    2367    2415    2412       1
    2370    2373    2376    2379       1    2370    2373   -2376    2412       1
    2367    2370    2373    2376       1    2367    2415   -2412    2376       1
    2364    2361    2367    2370       6    2364    2361    2367    2415       6
    2361    2367    2370    2373       1    2361    2367    2415    2412       1
    2361    2316   -2358    2415       5    2358    2415    2412    2376       1
    2358    2415   -2367    2361       1    2358    2415    2367    2370       1
    2358    2316    2361    2364       5    2358    2316   -2361    2367       5
    2355    2358    2415    2412       6    2355    2358    2415    2367       6
    2355    2358    2316    2361       5    2319    2313    2316    2358       7
    2319    2313    2316    2361       7    2316    2313    2319    2322       1
    2316    2358    2415    2412       4    2316    2358   -2415    2367       4
    2316    2361    2367    2370       4    2316    2361   -2367    2415       4
    2313    2316    2358    2355       5    2313    2316    2358    2415       5
    2313    2316    2361    2364       5    2313    2316    2361    2367       5
    2310    2307    2304    2322       1    2310    2313    2316    2358       7
    2310    2313    2316    2361       7    2310    2313   -2319    2322       1
    2307    2304    2322    2319       1    2307    2310    2313    2316       1
    2307    2310   -2313    2319       1    2304    2301    2298    2325       3
    2304    2307    2310    2313       1    2304    2322   -2319    2313       1
    2301    2298    2325    2328       1    2301    2304    2307    2310       1
    2301    2304    2322    2319       1    2298    2301    2304    2307       3
    2298    2301    2304    2322       3    2295    2292    2289    2328       1
    2295    2298    2301    2304       3    2295    2298   -2325    2328       1
    2292    2289    2328    2325       1    2292    2295    2298    2301       1
    2292    2295   -2298    2325       1    2289    2292    2295    2298       1
    2289    2328   -2325    2298       1    2286    2289    2292    2295       1
    2286    2289    2328    2325       1    2259    2256    2250    2286       4
    2256    2250    2286    2289       5    2256    2241   -2244    2286       4
    2253    2250    2256    2259       6    2253    2250    2286    2289       5
    2250    2286    2289    2292       7    2250    2286    2289    2328       7
    2247    2244    2241    2256       6    2247    2244    2286    2289       5
    2247    2244    2286    2250       5    2244    2241   -2256    2250       1
    2244    2241    2256    2259       1    2244    2286    2289    2292       7
    2244    2286    2289    2328       7    2244    2286    2250    2253       5
    2244    2286   -2250    2256       5    2241    2244    2286    2289       5
    2241    2244   -2286    2250       5    2241    2256    2250    2253       6
    2241    2256   -2250    2286       4    2238    2235    2232    2259       1
    2238    2241    2244    2247       6    2238    2241    2244    2286       4
    2238    2241    2256    2250       1    2238    2241   -2256    2259       1
    2235    2232    2259    2256       1    2235    2238    2241    2244       1
    2235    2238   -2241    2256       1    2232    2229    2226    2262       3
    2232    2235    2238    2241       1    2232    2259    2256    2250       1
    2232    2259   -2256    2241       1    2229    2226    2262    2265       1
    2229    2232    2235    2238       1    2229    2232    2259    2256       1
    2226    2229    2232    2235       3    2226    2229    2232    2259       3
    2223    2220    2217    2265       1    2223    2226    2229    2232       3
    2223    2226   -2262    2265       1    2220    2217    2265    2262       1
    2220    2223    2226    2229       1    2220    2223   -2226    2262       1
    2217    2220    2223    2226       1    2217    2265   -2262    2226       1
    2214    2211    2217    2220       6    2214    2211    2217    2265       6
    2211    2217    2220    2223       1    2211    2217    2265    2262       1
    2211    2166   -2208    2265       5    2208    2265    2262    2226       1
    2208    2265   -2217    2211       1    2208    2265    2217    2220       1
    2208    2166    2211    2214       5    2208    2166   -2211    2217       5
    2205    2208    2265    2262       6    2205    2208    2265    2217       6
    2205    2208    2166    2211       5    2169    2163    2166    2208       7
    2169    2163    2166    2211       7    2166    2163    2169    2172       1
    2166    2208    2265    2262       4    2166    2208   -2265    2217       4
    2166    2211    2217    2220       4    2166    2211   -2217    2265       4
    2163    2166    2208    2205       5    2163    2166    2208    2265       5
    2163    2166    2211    2214       5    2163    2166    2211    2217       5
    2160    2157    2154    2172       1    2160    2163    2166    2208       7
    2160    2163    2166    2211       7    2160    2163   -2169    2172       1
    2157    2154    2172    2169       1    2157    2160    2163    2166       1
    2157    2160   -2163    2169       1    2154    2151    2148    2175       3
    2154    2157    2160    2163       1    2154    2172   -2169    2163       1
    2151    2148    2175    2178       1    2151    2154    2157    2160       1
    2151    2154    2172    2169       1    2148    2151    2154    2157       3
    2148    2151    2154    2172       3    2145    2142    2139    2178       1
    2145    2148    2151    2154       3    2145    2148   -2175    2178       1
    2142    2139    2178    2175       1    2142    2145    2148    2151       1
    2142    2145   -2148    2175       1    2139    2142    2145    2148       1
    2139    2178   -2175    2148       1    2136    2139    2142    2145       1
    2136    2139    2178    2175       1    2109    2106    2100    2136       4
    2106    2100    2136    2139       5    2106    2091   -2094    2136       4
    2103    2100    2106    2109       6    2103    2100    2136    2139       5
    2100    2136    2139    2142       7    2100    2136    2139    2178       7
    2097    2094    2091    2106       6    2097    2094    2136    2139       5
    2097    2094    2136    2100       5    2094    2091   -2106    2100       1
    2094    2091    2106    2109       1    2094    2136    2139    2142       7
    2094    2136    2139    2178       7    2094    2136    2100    2103       5
    2094    2136   -2100    2106       5    2091    2094    2136    2139       5
    2091    2094   -2136    2100       5    2091    2106    2100    2103       6
    2091    2106   -2100    2136       4    2088    2085    2082    2109       1
    2088    2091    2094    2097       6    2088    2091    2094    2136       4
    2088    2091    2106    2100       1    2088    2091   -2106    2109       1
    2085    2082    2109    2106       1    2085    2088    2091    2094       1
    2085    2088   -2091    2106       1    2082    2079    2076    2112       3
    2082    2085    2088    2091       1    2082    2109    2106    2100       1
    2082    2109   -2106    2091       1    2079    2076    2112    2115       1
    2079    2082    2085    2088       1    2079    2082    2109    2106       1
    2076    2079    2082    2085       3    2076    2079    2082    2109       3
    2073    2070    2067    2115       1    2073    2076    2079    2082       3
    2073    2076   -2112    2115       1    2070    2067    2115    2112       1
    2070    2073    2076    2079       1    2070    2073   -2076    2112       1
    2067    2070    2073    2076       1    2067    2115   -2112    2076       1
    2064    2061    2067    2070       6    2064    2061    2067    2115       6
    2061    2067    2070    2073       1    2061    2067    2115    2112       1
    2061    2016   -2058    2115       5    2058    2115    2112    2076       1
    2058    2115   -2067    2061       1    2058    2115    2067    2070       1
    2058    2016    2061    2064       5    2058    2016   -2061    2067       5
    2055    2058    2115    2112       6    2055    2058    2115    2067       6
    2055    2058    2016    2061       5    2019    2013    2016    2058       7
    2019    2013    2016    2061       7    2016    2013    2019    2022       1
    2016    2058    2115    2112       4    2016    2058   -2115    2067       4
    2016    2061    2067    2070       4    2016    2061   -2067    2115       4
    2013    2016    2058    2055       5    2013    2016    2058    2115       5
    2013    2016    2061    2064       5    2013    2016    2061    2067       5
    2010    2007    2004    2022       1    2010    2013    2016    2058       7
    2010    2013    2016    2061       7    2010    2013   -2019    2022       1
    2007    2004    2022    2019       1    2007    2010    2013    2016       1
    2007    2010   -2013    2019       1    2004    2001    1998    2025       3
    2004    2007    2010    2013       1    2004    2022   -2019    2013       1
    2001    1998    2025    2028       1    2001    2004    2007    2010       1
    2001    2004    2022    2019       1    1998    2001    2004    2007       3
    1998    2001    2004    2022       3    1995    1992    1989    2028       1
    1995    1998    2001    2004       3    1995    1998   -2025    2028       1
    1992    1989    2028    2025       1    1992    1995    1998    2001       1
    1992    1995   -1998    2025       1    1989    1992    1995    1998       1
    1989    2028   -2025    1998       1    1986    1989    1992    1995       1
    1986    1989    2028    2025       1    1959    1956    1950    1986       4
    1956    1950    1986    1989       5    1956    1941   -1944    1986       4
    1953    1950    1956    1959       6    1953    1950    1986    1989       5
    1950    1986    1989    1992       7    1950    1986    1989    2028       7
    1947    1944    1941    1956       6    1947    1944    1986    1989       5
    1947    1944    1986    1950       5    1944    1941   -1956    1950       1
    1944    1941    1956    1959       1    1944    1986    1989    1992       7
    1944    1986    1989    2028       7    1944    1986    1950    1953       5
    1944    1986   -1950    1956       5    1941    1944    1986    1989       5
    1941    1944   -1986    1950       5    1941    1956    1950    1953       6
    1941    1956   -1950    1986       4    1938    1935    1932    1959       1
    1938    1941    1944    1947       6    1938    1941    1944    1986       4
    1938    1941    1956    1950       1    1938    1941   -1956    1959       1
    1935    1932    1959    1956       1    1935    1938    1941    1944       1
    1935    1938   -1941    1956       1    1932    1929    1926    1962       3
    1932    1935    1938    1941       1    1932    1959    1956    1950       1
    1932    1959   -1956    1941       1    1929    1926    1962    1965       1
    1929    1932    1935    1938       1    1929    1932    1959    1956       1
    1926    1929    1932    1935       3    1926    1929    1932    1959       3
    1923    1920    1917    1965       1    1923    1926    1929    1932       3
    1923    1926   -1962    1965       1    1920    1917    1965    1962       1
    1920    1923    1926    1929       1    1920    1923   -1926    1962       1
    1917    1920    1923    1926       1    1917    1965   -1962    1926       1
    1914    1911    1917    1920       6    1914    1911    1917    1965       6
    1911    1917    1920    1923       1    1911    1917    1965    1962       1
    1911    1866   -1908    1965       5    1908    1965    1962    1926       1
    1908    1965   -1917    1911       1    1908    1965    1917    1920       1
    1908    1866    1911    1914       5    1908    1866   -1911    1917       5
    1905    1908    1965    1962       6    1905    1908    1965    1917       6
    1905    1908    1866    1911       5    1869    1863    1866    1908       7
    1869    1863    1866    1911       7    1866    1863    1869    1872       1
    1866    1908    1965    1962       4    1866    1908   -1965    1917       4
    1866    1911    1917    1920       4    1866    1911   -1917    1965       4
    1863    1866    1908    1905       5    1863    1866    1908    1965       5
    1863    1866    1911    1914       5    1863    1866    1911    1917       5
    1860    1857    1854    1872       1    1860    1863    1866    1908       7
    1860    1863    1866    1911       7    1860    1863   -1869    1872       1
    1857    1854    1872    1869       1    1857    1860    1863    1866       1
    1857    1860   -1863    1869       1    1854    1851    1848    1875       3
    1854    1857    1860    1863       1    1854    1872   -1869    1863       1
    1851    1848    1875    1878       1    1851    1854    1857    1860       1
    1851    1854    1872    1869       1    1848    1851    1854    1857       3
    1848    1851    1854    1872       3    1845    1842    1839    1878       1
    1845    1848    1851    1854       3    1845    1848   -1875    1878       1
    1842    1839    1878    1875       1    1842    1845    1848    1851       1
    1842    1845   -1848    1875       1    1839    1842    1845    1848       1
    1839    1878   -1875    1848       1    1836    1839    1842    1845       1
    1836    1839    1878    1875       1    1809    1806    1800    1836       4
    1806    1800    1836    1839       5    1806    1791   -1794    1836       4
    1803    1800    1806    1809       6    1803    1800    1836    1839       5
    1800    1836    1839    1842       7    1800    1836    1839    1878       7
    1797    1794    1791    1806       6    1797    1794    1836    1839       5
    1797    1794    1836    1800       5    1794    1791   -1806    1800       1
    1794    1791    1806    1809       1    1794    1836    1839    1842       7
    1794    1836    1839    1878       7    1794    1836    1800    1803       5
    1794    1836   -1800    1806       5    1791    1794    1836    1839       5
    1791    1794   -1836    1800       5    1791    1806    1800    1803       6
    1791    1806   -1800    1836       4    1788    1785    1782    1809       1
    1788    1791    1794    1797       6    1788    1791    1794    1836       4
    1788    1791    1806    1800       1    1788    1791   -1806    1809       1
    1785    1782    1809    1806       1    1785    1788    1791    1794       1
    1785    1788   -1791    1806       1    1782    1779    1776    1812       3
    1782    1785    1788    1791       1    1782    1809    1806    1800       1
    1782    1809   -1806    1791       1    1779    1776    1812    1815       1
    1779    1782    1785    1788       1    1779    1782    1809    1806       1
    1776    1779    1782    1785       3    1776    1779    1782    1809       3
    1773    1770    1767    1815       1    1773    1776    1779    1782       3
    1773    1776   -1812    1815       1    1770    1767    1815    1812       1
    1770    1773    1776    1779       1    1770    1773   -1776    1812       1
    1767    1770    1773    1776       1    1767    1815   -1812    1776       1
    1764    1761    1767    1770       6    1764    1761    1767    1815       6
    1761    1767    1770    1773       1    1761    1767    1815    1812       1
    1761    1716   -1758    1815       5    1758    1815    1812    1776       1
    1758    1815   -1767    1761       1    1758    1815    1767    1770       1
    1758    1716    1761    1764       5    1758    1716   -1761    1767       5
    1755    1758    1815    1812       6    1755    1758    1815    1767       6
    1755    1758    1716    1761       5    1719    1713    1716    1758       7
    1719    1713    1716    1761       7    1716    1713    1719    1722       1
    1716    1758    1815    1812       4    1716    1758   -1815    1767       4
    1716    1761    1767    1770       4    1716    1761   -1767    1815       4
    1713    1716    1758    1755       5    1713    1716    1758    1815       5
    1713    1716    1761    1764       5    1713    1716    1761    1767       5
    1710    1707    1704    1722       1    1710    1713    1716    1758       7
    1710    1713    1716    1761       7    1710    1713   -1719    1722       1
    1707    1704    1722    1719       1    1707    1710    1713    1716       1
    1707    1710   -1713    1719       1    1704    1701    1698    1725       3
    1704    1707    1710    1713       1    1704    1722   -1719    1713       1
    1701    1698    1725    1728       1    1701    1704    1707    1710       1
    1701    1704    1722    1719       1    1698    1701    1704    1707       3
    1698    1701    1704    1722       3    1695    1692    1689    1728       1
    1695    1698    1701    1704       3    1695    1698   -1725    1728       1
    1692    1689    1728    1725       1    1692    1695    1698    1701       1
    1692    1695   -1698    1725       1    1689    1692    1695    1698       1
    1689    1728   -1725    1698       1    1686    1689    1692    1695       1
    1686    1689    1728    1725       1    1659    1656    1650    1686       4
    1656    1650    1686    1689       5    1656    1641   -1644    1686       4
    1653    1650    1656    1659       6    1653    1650    1686    1689       5
    1650    1686    1689    1692       7    1650    1686    1689    1728       7
    1647    1644    1641    1656       6    1647    1644    1686    1689       5
    1647    1644    1686    1650       5    1644    1641   -1656    1650       1
    1644    1641    1656    1659       1    1644    1686    1689    1692       7
    1644    1686    1689    1728       7    1644    1686    1650    1653       5
    1644    1686   -1650    1656       5    1641    1644    1686    1689       5
    1641    1644   -1686    1650       5    1641    1656    1650    1653       6
    1641    1656   -1650    1686       4    1638    1635    1632    1659       1
    1638    1641    1644    1647       6    1638    1641    1644    1686       4
    1638    1641    1656    1650       1    1638    1641   -1656    1659       1
    1635    1632    1659    1656       1    1635    1638    1641    1644       1
    1635    1638   -1641    1656       1    1632    1629    1626    1662       3
    1632    1635    1638    1641       1    1632    1659    1656    1650       1
    1632    1659   -1656    1641       1    1629    1626    1662    1665       1
    1629    1632    1635    1638       1    1629    1632    1659    1656       1
    1626    1629    1632    1635       3    1626    1629    1632    1659       3
    1623    1620    1617    1665       1    1623    1626    1629    1632       3
    1623    1626   -1662    1665       1    1620    1617    1665    1662       1
    1620    1623    1626    1629       1    1620    1623   -1626    1662       1
    1617    1620    1623    1626       1    1617    1665   -1662    1626       1
    1614    1611    1617    1620       6    1614    1611    1617    1665       6
    1611    1617    1620    1623       1    1611    1617    1665    1662       1
    1611    1515   -1608    1665       5    1608    1665    1662    1626       1
    1608    1665   -1617    1611       1    1608    1665    1617    1620       1
    1608    1515    1611    1614       5    1608    1515   -1611    1617       5
    1605    1608    1665    1662       6    1605    1608    1665    1617       6
    1605    1608    1515    1611       5    1551    1548    1554    1557       1
    1551    1548    1554    1560       1    1545    1542    1539    1560       1
    1545    1548    1554    1557       1    1545    1548   -1554    1560       1
    1542    1539    1560    1554       1    1542    1545    1548    1551       1
    1542    1545   -1548    1554       1    1539    1542    1545    1548       1
    1539    1560   -1554    1548       1    1539    1560    1554    1557       1
    1536    1539    1542    1545       1    1536    1539    1560    1554       1
    1533    1536    1539    1542      12    1533    1536    1539    1560      12
    1530    1524    1521    1563       4    1530    1533    1536    1539      13
    1527    1524    1521    1563       6    1527    1524    1530    1533       5
    1524    1530    1533    1536      15    1524    1530   -1533    1536      16
    1524    1530   -1533    1536      17    1521    1524    1530    1533       5
    1518    1512    1515    1608       7    1518    1512    1515    1611       7
    1518    1521    1524    1527       6    1518    1521    1524    1530       4
    1515    1512    1518    1521       1    1515    1608    1665    1662       4
    1515    1608   -1665    1617       4    1515    1611    1617    1620       4
    1515    1611   -1617    1665       4    1512    1509    1506    1563       1
    1512    1515    1608    1605       5    1512    1515    1608    1665       5
    1512    1515    1611    1614       5    1512    1515    1611    1617       5
    1512    1518    1521    1524       1    1512    1518   -1521    1563       1
    1509    1506    1563    1521       1    1509    1512    1515    1608       7
    1509    1512    1515    1611       7    1509    1512   -1518    1521       1
    1506    1509    1512    1515       1    1506    1509    1512    1518       1
    1506    1563   -1521    1518       1    1506    1563    1521    1524       1
    1503    1506    1509    1512       1    1503    1506    1563    1521       1
    1476    1473    1467    1503       4    1473    1467    1503    1506       5
    1473    1458   -1461    1503       4    1470    1467    1473    1476       6
    1470    1467    1503    1506       5    1467    1503    1506    1509       7
    1467    1503    1506    1563       7    1464    1461    1458    1473       6
    1464    1461    1503    1506       5    1464    1461    1503    1467       5
    1461    1458   -1473    1467       1    1461    1458    1473    1476       1
    1461    1503    1506    1509       7    1461    1503    1506    1563       7
    1461    1503    1467    1470       5    1461    1503   -1467    1473       5
    1458    1461    1503    1506       5    1458    1461   -1503    1467       5
    1458    1473    1467    1470       6    1458    1473   -1467    1503       4
    1455    1452    1449    1476       1    1455    1458    1461    1464       6
    1455    1458    1461    1503       4    1455    1458    1473    1467       1
    1455    1458   -1473    1476       1    1452    1449    1476    1473       1
    1452    1455    1458    1461       1    1452    1455   -1458    1473       1
    1449    1446    1443    1479       3    1449    1452    1455    1458       1
    1449    1476    1473    1467       1    1449    1476   -1473    1458       1
    1446    1443    1479    1482       1    1446    1449    1452    1455       1
    1446    1449    1476    1473       1    1443    1446    1449    1452       3
    1443    1446    1449    1476       3    1440    1437    1434    1482       1
    1440    1443    1446    1449       3    1440    1443   -1479    1482       1
    1437    1434    1482    1479       1    1437    1440    1443    1446       1
    1437    1440   -1443    1479       1    1434    1437    1440    1443       1
    1434    1482   -1479    1443       1    1431    1428    1434    1437       6
    1431    1428    1434    1482       6    1428    1434    1437    1440       1
    1428    1434    1482    1479       1    1428    1377   -1425    1482       5
    1425    1482    1479    1443       1    1425    1482   -1434    1428       1
    1425    1482    1434    1437       1    1425    1377    1428    1431       5
    1425    1377   -1428    1434       5    1422    1425    1482    1479       6
    1422    1425    1482    1434       6    1422    1425    1377    1428       5
    1380    1374    1377    1425       7    1380    1374    1377    1428       7
    1377    1374    1380    1383       1    1377    1425    1482    1479       4
    1377    1425   -1482    1434       4    1377    1428    1434    1437       4
    1377    1428   -1434    1482       4    1374    1377    1425    1422       5
    1374    1377    1425    1482       5    1374    1377    1428    1431       5
    1374    1377    1428    1434       5    1371    1368    1365    1383       1
    1371    1374    1377    1425       7    1371    1374    1377    1428       7
    1371    1374   -1380    1383       1    1368    1365    1383    1380       1
    1368    1371    1374    1377       1    1368    1371   -1374    1380       1
    1365    1362    1359    1386       3    1365    1368    1371    1374       1
    1365    1383   -1380    1374       1    1362    1359    1386    1389       1
    1362    1365    1368    1371       1    1362    1365    1383    1380       1
    1359    1362    1365    1368       3    1359    1362    1365    1383       3
    1356    1353    1350    1389       1    1356    1359    1362    1365       3
    1356    1359   -1386    1389       1    1353    1350    1389    1386       1
    1353    1356    1359    1362       1    1353    1356   -1359    1386       1
    1350    1353    1356    1359       1    1350    1389   -1386    1359       1
    1347    1350    1353    1356       1    1347    1350    1389    1386       1
    3996    3993    3999    4002       1    3990    3987    3984    4002       1
    3990    3993   -3999    4002       1    3987    3984    4002    3999       1
    3987    3990    3993    3996       1    3987    3990   -3993    3999       1
    3984    3981    3978    4005       3    3984    3987    3990    3993       1
    3984    4002   -3999    3993       1    3981    3978    4005    4008       1
    3981    3984    3987    3990       1    3981    3984    4002    3999       1
    3978    3981    3984    3987       3    3978    3981    3984    4002       3
    3975    3972    3969    4008       1    3975    3978    3981    3984       3
    3975    3978   -4005    4008       1    3972    3969    4008    4005       1
    3972    3975    3978    3981       1    3972    3975   -3978    4005       1
    3969    3972    3975    3978       1    3969    4008   -4005    3978       1
    3966    3969    3972    3975       1    3966    3969    4008    4005       1
    3939    3936    3930    3966       4    3936    3930    3966    3969       5
    3936    3921   -3924    3966       4    3933    3930    3936    3939       6
    3933    3930    3966    3969       5    3930    3966    3969    3972       7
    3930    3966    3969    4008       7    3927    3924    3921    3936       6
    3927    3924    3966    3969       5    3927    3924    3966    3930       5
    3924    3921   -3936    3930       1    3924    3921    3936    3939       1
    3924    3966    3969    3972       7    3924    3966    3969    4008       7
    3924    3966    3930    3933       5    3924    3966   -3930    3936       5
    3921    3924    3966    3969       5    3921    3924   -3966    3930       5
    3921    3936    3930    3933       6    3921    3936   -3930    3966       4
    3918    3915    3912    3939       1    3918    3921    3924    3927       6
    3918    3921    3924    3966       4    3918    3921    3936    3930       1
    3918    3921   -3936    3939       1    3915    3912    3939    3936       1
    3915    3918    3921    3924       1    3915    3918   -3921    3936       1
    3912    3909    3906    3942       3    3912    3915    3918    3921       1
    3912    3939    3936    3930       1    3912    3939   -3936    3921       1
    3909    3906    3942    3945       1    3909    3912    3915    3918       1
    3909    3912    3939    3936       1    3906    3909    3912    3915       3
    3906    3909    3912    3939       3    3903    3900    3897    3945       1
    3903    3906    3909    3912       3    3903    3906   -3942    3945       1
    3900    3897    3945    3942       1    3900    3903    3906    3909       1
    3900    3903   -3906    3942       1    3897    3900    3903    3906       1
    3897    3945   -3942    3906       1    3894    3891    3897    3900       6
    3894    3891    3897    3945       6    3891    3897    3900    3903       1
    3891    3897    3945    3942       1    3891    3795   -3888    3945       5
    3888    3945    3942    3906       1    3888    3945   -3897    3891       1
    3888    3945    3897    3900       1    3888    3795    3891    3894       5
    3888    3795   -3891    3897       5    3885    3888    3945    3942       6
    3885    3888    3945    3897       6    3885    3888    3795    3891       5
    3831    3828    3834    3837       1    3831    3828    3834    3840       1
    3825    3822    3819    3840       1    3825    3828    3834    3837       1
    3825    3828   -3834    3840       1    3822    3819    3840    3834       1
    3822    3825    3828    3831       1    3822    3825   -3828    3834       1
    3819    3822    3825    3828       1    3819    3840   -3834    3828       1
    3819    3840    3834    3837       1    3816    3819    3822    3825       1
    3816    3819    3840    3834       1    3813    3816    3819    3822      12
    3813    3816    3819    3840      12    3810    3804    3801    3843       4
    3810    3813    3816    3819      13    3807    3804    3801    3843       6
    3807    3804    3810    3813       5    3804    3810    3813    3816      15
    3804    3810   -3813    3816      16    3804    3810   -3813    3816      17
    3801    3804    3810    3813       5    3798    3792    3795    3888       7
    3798    3792    3795    3891       7    3798    3801    3804    3807       6
    3798    3801    3804    3810       4    3795    3792    3798    3801       1
    3795    3888    3945    3942       4    3795    3888   -3945    3897       4
    3795    3891    3897    3900       4    3795    3891   -3897    3945       4
    3792    3789    3786    3843       1    3792    3795    3888    3885       5
    3792    3795    3888    3945       5    3792    3795    3891    3894       5
    3792    3795    3891    3897       5    3792    3798    3801    3804       1
    3792    3798   -3801    3843       1    3789    3786    3843    3801       1
    3789    3792    3795    3888       7    3789    3792    3795    3891       7
    3789    3792   -3798    3801       1    3786    3789    3792    3795       1
    3786    3789    3792    3798       1    3786    3843   -3801    3798       1
    3786    3843    3801    3804       1    3783    3786    3789    3792       1
    3783    3786    3843    3801       1    3756    3753    3747    3783       4
    3753    3747    3783    3786       5    3753    3738   -3741    3783       4
    3750    3747    3753    3756       6    3750    3747    3783    3786       5
    3747    3783    3786    3789       7    3747    3783    3786    3843       7
    3744    3741    3738    3753       6    3744    3741    3783    3786       5
    3744    3741    3783    3747       5    3741    3738   -3753    3747       1
    3741    3738    3753    3756       1    3741    3783    3786    3789       7
    3741    3783    3786    3843       7    3741    3783    3747    3750       5
    3741    3783   -3747    3753       5    3738    3741    3783    3786       5
    3738    3741   -3783    3747       5    3738    3753    3747    3750       6
    3738    3753   -3747    3783       4    3735    3732    3729    3756       1
    3735    3738    3741    3744       6    3735    3738    3741    3783       4
    3735    3738    3753    3747       1    3735    3738   -3753    3756       1
    3732    3729    3756    3753       1    3732    3735    3738    3741       1
    3732    3735   -3738    3753       1    3729    3726    3723    3759       3
    3729    3732    3735    3738       1    3729    3756    3753    3747       1
    3729    3756   -3753    3738       1    3726    3723    3759    3762       1
    3726    3729    3732    3735       1    3726    3729    3756    3753       1
    3723    3726    3729    3732       3    3723    3726    3729    3756       3
    3720    3717    3714    3762       1    3720    3723    3726    3729       3
    3720    3723   -3759    3762       1    3717    3714    3762    3759       1
    3717    3720    3723    3726       1    3717    3720   -3723    3759       1
    3714    3717    3720    3723       1    3714    3762   -3759    3723       1
    3711    3708    3714    3717       6    3711    3708    3714    3762       6
    3708    3714    3717    3720       1    3708    3714    3762    3759       1
    3708    3663   -3705    3762       5    3705    3762    3759    3723       1
    3705    3762   -3714    3708       1    3705    3762    3714    3717       1
    3705    3663    3708    3711       5    3705    3663   -3708    3714       5
    3702    3705    3762    3759       6    3702    3705    3762    3714       6
    3702    3705    3663    3708       5    3666    3660    3663    3705       7
    3666    3660    3663    3708       7    3663    3660    3666    3669       1
    3663    3705    3762    3759       4    3663    3705   -3762    3714       4
    3663    3708    3714    3717       4    3663    3708   -3714    3762       4
    3660    3663    3705    3702       5    3660    3663    3705    3762       5
    3660    3663    3708    3711       5    3660    3663    3708    3714       5
    3657    3654    3651    3669       1    3657    3660    3663    3705       7
    3657    3660    3663    3708       7    3657    3660   -3666    3669       1
    3654    3651    3669    3666       1    3654    3657    3660    3663       1
    3654    3657   -3660    3666       1    3651    3648    3645    3672       3
    3651    3654    3657    3660       1    3651    3669   -3666    3660       1
    3648    3645    3672    3675       1    3648    3651    3654    3657       1
    3648    3651    3669    3666       1    3645    3648    3651    3654       3
    3645    3648    3651    3669       3    3642    3639    3636    3675       1
    3642    3645    3648    3651       3    3642    3645   -3672    3675       1
    3639    3636    3675    3672       1    3639    3642    3645    3648       1
    3639    3642   -3645    3672       1    3636    3639    3642    3645       1
    3636    3675   -3672    3645       1    3633    3636    3639    3642       1
    3633    3636    3675    3672       1    3606    3603    3597    3633       4
    3603    3597    3633    3636       5    3603    3588   -3591    3633       4
    3600    3597    3603    3606       6    3600    3597    3633    3636       5
    3597    3633    3636    3639       7    3597    3633    3636    3675       7
    3594    3591    3588    3603       6    3594    3591    3633    3636       5
    3594    3591    3633    3597       5    3591    3588   -3603    3597       1
    3591    3588    3603    3606       1    3591    3633    3636    3639       7
    3591    3633    3636    3675       7    3591    3633    3597    3600       5
    3591    3633   -3597    3603       5    3588    3591    3633    3636       5
    3588    3591   -3633    3597       5    3588    3603    3597    3600       6
    3588    3603   -3597    3633       4    3585    3582    3579    3606       1
    3585    3588    3591    3594       6    3585    3588    3591    3633       4
    3585    3588    3603    3597       1    3585    3588   -3603    3606       1
    3582    3579    3606    3603       1    3582    3585    3588    3591       1
    3582    3585   -3588    3603       1    3579    3576    3573    3609       3
    3579    3582    3585    3588       1    3579    3606    3603    3597       1
    3579    3606   -3603    3588       1    3576    3573    3609    3612       1
    3576    3579    3582    3585       1    3576    3579    3606    3603       1
    3573    3576    3579    3582       3    3573    3576    3579    3606       3
    3570    3567    3564    3612       1    3570    3573    3576    3579       3
    3570    3573   -3609    3612       1    3567    3564    3612    3609       1
    3567    3570    3573    3576       1    3567    3570   -3573    3609       1
    3564    3567    3570    3573       1    3564    3612   -3609    3573       1
    3561    3558    3564    3567       6    3561    3558    3564    3612       6
    3558    3564    3567    3570       1    3558    3564    3612    3609       1
    3558    3513   -3555    3612       5    3555    3612    3609    3573       1
    3555    3612   -3564    3558       1    3555    3612    3564    3567       1
    3555    3513    3558    3561       5    3555    3513   -3558    3564       5
    3552    3555    3612    3609       6    3552    3555    3612    3564       6
    3552    3555    3513    3558       5    3516    3510    3513    3555       7
    3516    3510    3513    3558       7    3513    3510    3516    3519       1
    3513    3555    3612    3609       4    3513    3555   -3612    3564       4
    3513    3558    3564    3567       4    3513    3558   -3564    3612       4
    3510    3513    3555    3552       5    3510    3513    3555    3612       5
    3510    3513    3558    3561       5    3510    3513    3558    3564       5
    3507    3504    3501    3519       1    3507    3510    3513    3555       7
    3507    3510    3513    3558       7    3507    3510   -3516    3519       1
    3504    3501    3519    3516       1    3504    3507    3510    3513       1
    3504    3507   -3510    3516       1    3501    3498    3495    3522       3
    3501    3504    3507    3510       1    3501    3519   -3516    3510       1
    3498    3495    3522    3525       1    3498    3501    3504    3507       1
    3498    3501    3519    3516       1    3495    3498    3501    3504       3
    3495    3498    3501    3519       3    3492    3489    3486    3525       1
    3492    3495    3498    3501       3    3492    3495   -3522    3525       1
    3489    3486    3525    3522       1    3489    3492    3495    3498       1
    3489    3492   -3495    3522       1    3486    3489    3492    3495       1
    3486    3525   -3522    3495       1    3483    3486    3489    3492       1
    3483    3486    3525    3522       1    3456    3453    3447    3483       4
    3453    3447    3483    3486       5    3453    3438   -3441    3483       4
    3450    3447    3453    3456       6    3450    3447    3483    3486       5
    3447    3483    3486    3489       7    3447    3483    3486    3525       7
    3444    3441    3438    3453       6    3444    3441    3483    3486       5
    3444    3441    3483    3447       5    3441    3438   -3453    3447       1
    3441    3438    3453    3456       1    3441    3483    3486    3489       7
    3441    3483    3486    3525       7    3441    3483    3447    3450       5
    3441    3483   -3447    3453       5    3438    3441    3483    3486       5
    3438    3441   -3483    3447       5    3438    3453    3447    3450       6
    3438    3453   -3447    3483       4    3435    3432    3429    3456       1
    3435    3438    3441    3444       6    3435    3438    3441    3483       4
    3435    3438    3453    3447       1    3435    3438   -3453    3456       1
    3432    3429    3456    3453       1    3432    3435    3438    3441       1
    3432    3435   -3438    3453       1    3429    3426    3423    3459       3
    3429    3432    3435    3438       1    3429    3456    3453    3447       1
    3429    3456   -3453    3438       1    3426    3423    3459    3462       1
    3426    3429    3432    3435       1    3426    3429    3456    3453       1
    3423    3426    3429    3432       3    3423    3426    3429    3456       3
    3420    3417    3414    3462       1    3420    3423    3426    3429       3
    3420    3423   -3459    3462       1    3417    3414    3462    3459       1
    3417    3420    3423    3426       1    3417    3420   -3423    3459       1
    3414    3417    3420    3423       1    3414    3462   -3459    3423       1
    3411    3408    3414    3417       6    3411    3408    3414    3462       6
    3408    3414    3417    3420       1    3408    3414    3462    3459       1
    3408    3363   -3405    3462       5    3405    3462    3459    3423       1
    3405    3462   -3414    3408       1    3405    3462    3414    3417       1
    3405    3363    3408    3411       5    3405    3363   -3408    3414       5
    3402    3405    3462    3459       6    3402    3405    3462    3414       6
    3402    3405    3363    3408       5    3366    3360    3363    3405       7
    3366    3360    3363    3408       7    3363    3360    3366    3369       1
    3363    3405    3462    3459       4    3363    3405   -3462    3414       4
    3363    3408    3414    3417       4    3363    3408   -3414    3462       4
    3360    3363    3405    3402       5    3360    3363    3405    3462       5
    3360    3363    3408    3411       5    3360    3363    3408    3414       5
    3357    3354    3351    3369       1    3357    3360    3363    3405       7
    3357    3360    3363    3408       7    3357    3360   -3366    3369       1
    3354    3351    3369    3366       1    3354    3357    3360    3363       1
    3354    3357   -3360    3366       1    3351    3348    3345    3372       3
    3351    3354    3357    3360       1    3351    3369   -3366    3360       1
    3348    3345    3372    3375       1    3348    3351    3354    3357       1
    3348    3351    3369    3366       1    3345    3348    3351    3354       3
    3345    3348    3351    3369       3    3342    3339    3336    3375       1
    3342    3345    3348    3351       3    3342    3345   -3372    3375       1
    3339    3336    3375    3372       1    3339    3342    3345    3348       1
    3339    3342   -3345    3372       1    3336    3339    3342    3345       1
    3336    3375   -3372    3345       1    3333    3336    3339    3342       1
    3333    3336    3375    3372       1    3306    3303    3297    3333       4
    3303    3297    3333    3336       5    3303    3288   -3291    3333       4
    3300    3297    3303    3306       6    3300    3297    3333    3336       5
    3297    3333    3336    3339       7    3297    3333    3336    3375       7
    3294    3291    3288    3303       6    3294    3291    3333    3336       5
    3294    3291    3333    3297       5    3291    3288   -3303    3297       1
    3291    3288    3303    3306       1    3291    3333    3336    3339       7
    3291    3333    3336    3375       7    3291    3333    3297    3300       5
    3291    3333   -3297    3303       5    3288    3291    3333    3336       5
    3288    3291   -3333    3297       5    3288    3303    3297    3300       6
    3288    3303   -3297    3333       4    3285    3282    3279    3306       1
    3285    3288    3291    3294       6    3285    3288    3291    3333       4
    3285    3288    3303    3297       1    3285    3288   -3303    3306       1
    3282    3279    3306    3303       1    3282    3285    3288    3291       1
    3282    3285   -3288    3303       1    3279    3276    3273    3309       3
    3279    3282    3285    3288       1    3279    3306    3303    3297       1
    3279    3306   -3303    3288       1    3276    3273    3309    3312       1
    3276    3279    3282    3285       1    3276    3279    3306    3303       1
    3273    3276    3279    3282       3    3273    3276    3279    3306       3
    3270    3267    3264    3312       1    3270    3273    3276    3279       3
    3270    3273   -3309    3312       1    3267    3264    3312    3309       1
    3267    3270    3273    3276       1    3267    3270   -3273    3309       1
    3264    3267    3270    3273       1    3264    3312   -3309    3273       1
    3261    3258    3264    3267       6    3261    3258    3264    3312       6
    3258    3264    3267    3270       1    3258    3264    3312    3309       1
    3258    3213   -3255    3312       5    3255    3312    3309    3273       1
    3255    3312   -3264    3258       1    3255    3312    3264    3267       1
    3255    3213    3258    3261       5    3255    3213   -3258    3264       5
    3252    3255    3312    3309       6    3252    3255    3312    3264       6
    3252    3255    3213    3258       5    3216    3210    3213    3255       7
    3216    3210    3213    3258       7    3213    3210    3216    3219       1
    3213    3255    3312    3309       4    3213    3255   -3312    3264       4
    3213    3258    3264    3267       4    3213    3258   -3264    3312       4
    3210    3213    3255    3252       5    3210    3213    3255    3312       5
    3210    3213    3258    3261       5    3210    3213    3258    3264       5
    3207    3204    3201    3219       1    3207    3210    3213    3255       7
    3207    3210    3213    3258       7    3207    3210   -3216    3219       1
    3204    3201    3219    3216       1    3204    3207    3210    3213       1
    3204    3207   -3210    3216       1    3201    3198    3195    3222       3
    3201    3204    3207    3210       1    3201    3219   -3216    3210       1
    3198    3195    3222    3225       1    3198    3201    3204    3207       1
    3198    3201    3219    3216       1    3195    3198    3201    3204       3
    3195    3198    3201    3219       3    3192    3189    3186    3225       1
    3192    3195    3198    3201       3    3192    3195   -3222    3225       1
    3189    3186    3225    3222       1    3189    3192    3195    3198       1
    3189    3192   -3195    3222       1    3186    3189    3192    3195       1
    3186    3225   -3222    3195       1    3183    3186    3189    3192       1
    3183    3186    3225    3222       1    3156    3153    3147    3183       4
    3153    3147    3183    3186       5    3153    3138   -3141    3183       4
    3150    3147    3153    3156       6    3150    3147    3183    3186       5
    3147    3183    3186    3189       7    3147    3183    3186    3225       7
    3144    3141    3138    3153       6    3144    3141    3183    3186       5
    3144    3141    3183    3147       5    3141    3138   -3153    3147       1
    3141    3138    3153    3156       1    3141    3183    3186    3189       7
    3141    3183    3186    3225       7    3141    3183    3147    3150       5
    3141    3183   -3147    3153       5    3138    3141    3183    3186       5
    3138    3141   -3183    3147       5    3138    3153    3147    3150       6
    3138    3153   -3147    3183       4    3135    3132    3129    3156       1
    3135    3138    3141    3144       6    3135    3138    3141    3183       4
    3135    3138    3153    3147       1    3135    3138   -3153    3156       1
    3132    3129    3156    3153       1    3132    3135    3138    3141       1
    3132    3135   -3138    3153       1    3129    3126    3123    3159       3
    3129    3132    3135    3138       1    3129    3156    3153    3147       1
    3129    3156   -3153    3138       1    3126    3123    3159    3162       1
    3126    3129    3132    3135       1    3126    3129    3156    3153       1
    3123    3126    3129    3132       3    3123    3126    3129    3156       3
    3120    3117    3114    3162       1    3120    3123    3126    3129       3
    3120    3123   -3159    3162       1    3117    3114    3162    3159       1
    3117    3120    3123    3126       1    3117    3120   -3123    3159       1
    3114    3117    3120    3123       1    3114    3162   -3159    3123       1
    3111    3108    3114    3117       6    3111    3108    3114    3162       6
    3108    3114    3117    3120       1    3108    3114    3162    3159       1
    3108    3063   -3105    3162       5    3105    3162    3159    3123       1
    3105    3162   -3114    3108       1    3105    3162    3114    3117       1
    3105    3063    3108    3111       5    3105    3063   -3108    3114       5
    3102    3105    3162    3159       6    3102    3105    3162    3114       6
    3102    3105    3063    3108       5    3066    3060    3063    3105       7
    3066    3060    3063    3108       7    3063    3060    3066    3069       1
    3063    3105    3162    3159       4    3063    3105   -3162    3114       4
    3063    3108    3114    3117       4    3063    3108   -3114    3162       4
    3060    3063    3105    3102       5    3060    3063    3105    3162       5
    3060    3063    3108    3111       5    3060    3063    3108    3114       5
    3057    3054    3051    3069       1    3057    3060    3063    3105       7
    3057    3060    3063    3108       7    3057    3060   -3066    3069       1
    3054    3051    3069    3066       1    3054    3057    3060    3063       1
    3054    3057   -3060    3066       1    3051    3048    3045    3072       3
    3051    3054    3057    3060       1    3051    3069   -3066    3060       1
    3048    3045    3072    3075       1    3048    3051    3054    3057       1
    3048    3051    3069    3066       1    3045    3048    3051    3054       3
    3045    3048    3051    3069       3    3042    3039    3036    3075       1
    3042    3045    3048    3051       3    3042    3045   -3072    3075       1
    3039    3036    3075    3072       1    3039    3042    3045    3048       1
    3039    3042   -3045    3072       1    3036    3039    3042    3045       1
    3036    3075   -3072    3045       1    3033    3036    3039    3042       1
    3033    3036    3075    3072       1    3006    3003    2997    3033       4
    3003    2997    3033    3036       5    3003    2988   -2991    3033       4
    3000    2997    3003    3006       6    3000    2997    3033    3036       5
    2997    3033    3036    3039       7    2997    3033    3036    3075       7
    2994    2991    2988    3003       6    2994    2991    3033    3036       5
    2994    2991    3033    2997       5    2991    2988   -3003    2997       1
    2991    2988    3003    3006       1    2991    3033    3036    3039       7
    2991    3033    3036    3075       7    2991    3033    2997    3000       5
    2991    3033   -2997    3003       5    2988    2991    3033    3036       5
    2988    2991   -3033    2997       5    2988    3003    2997    3000       6
    2988    3003   -2997    3033       4    2985    2982    2979    3006       1
    2985    2988    2991    2994       6    2985    2988    2991    3033       4
    2985    2988    3003    2997       1    2985    2988   -3003    3006       1
    2982    2979    3006    3003       1    2982    2985    2988    2991       1
    2982    2985   -2988    3003       1    2979    2976    2973    3009       3
    2979    2982    2985    2988       1    2979    3006    3003    2997       1
    2979    3006   -3003    2988       1    2976    2973    3009    3012       1
    2976    2979    2982    2985       1    2976    2979    3006    3003       1
    2973    2976    2979    2982       3    2973    2976    2979    3006       3
    2970    2967    2964    3012       1    2970    2973    2976    2979       3
    2970    2973   -3009    3012       1    2967    2964    3012    3009       1
    2967    2970    2973    2976       1    2967    2970   -2973    3009       1
    2964    2967    2970    2973       1    2964    3012   -3009    2973       1
    2961    2958    2964    2967       6    2961    2958    2964    3012       6
    2958    2964    2967    2970       1    2958    2964    3012    3009       1
    2958    2862   -2955    3012       5    2955    3012    3009    2973       1
    2955    3012   -2964    2958       1    2955    3012    2964    2967       1
    2955    2862    2958    2961       5    2955    2862   -2958    2964       5
    2952    2955    3012    3009       6    2952    2955    3012    2964       6
    2952    2955    2862    2958       5    2898    2895    2901    2904       1
    2898    2895    2901    2907       1    2892    2889    2886    2907       1
    2892    2895    2901    2904       1    2892    2895   -2901    2907       1
    2889    2886    2907    2901       1    2889    2892    2895    2898       1
    2889    2892   -2895    2901       1    2886    2889    2892    2895       1
    2886    2907   -2901    2895       1    2886    2907    2901    2904       1
    2883    2886    2889    2892       1    2883    2886    2907    2901       1
    2880    2883    2886    2889      12    2880    2883    2886    2907      12
    2877    2871    2868    2910       4    2877    2880    2883    2886      13
    2874    2871    2868    2910       6    2874    2871    2877    2880       5
    2871    2877    2880    2883      15    2871    2877   -2880    2883      16
    2871    2877   -2880    2883      17    2868    2871    2877    2880       5
    2865    2859    2862    2955       7    2865    2859    2862    2958       7
    2865    2868    2871    2874       6    2865    2868    2871    2877       4
    2862    2859    2865    2868       1    2862    2955    3012    3009       4
    2862    2955   -3012    2964       4    2862    2958    2964    2967       4
    2862    2958   -2964    3012       4    2859    2856    2853    2910       1
    2859    2862    2955    2952       5    2859    2862    2955    3012       5
    2859    2862    2958    2961       5    2859    2862    2958    2964       5
    2859    2865    2868    2871       1    2859    2865   -2868    2910       1
    2856    2853    2910    2868       1    2856    2859    2862    2955       7
    2856    2859    2862    2958       7    2856    2859   -2865    2868       1
    2853    2856    2859    2862       1    2853    2856    2859    2865       1
    2853    2910   -2868    2865       1    2853    2910    2868    2871       1
    2850    2853    2856    2859       1    2850    2853    2910    2868       1
    2823    2820    2814    2850       4    2820    2814    2850    2853       5
    2820    2805   -2808    2850       4    2817    2814    2820    2823       6
    2817    2814    2850    2853       5    2814    2850    2853    2856       7
    2814    2850    2853    2910       7    2811    2808    2805    2820       6
    2811    2808    2850    2853       5    2811    2808    2850    2814       5
    2808    2805   -2820    2814       1    2808    2805    2820    2823       1
    2808    2850    2853    2856       7    2808    2850    2853    2910       7
    2808    2850    2814    2817       5    2808    2850   -2814    2820       5
    2805    2808    2850    2853       5    2805    2808   -2850    2814       5
    2805    2820    2814    2817       6    2805    2820   -2814    2850       4
    2802    2799    2796    2823       1    2802    2805    2808    2811       6
    2802    2805    2808    2850       4    2802    2805    2820    2814       1
    2802    2805   -2820    2823       1    2799    2796    2823    2820       1
    2799    2802    2805    2808       1    2799    2802   -2805    2820       1
    2796    2793    2790    2826       3    2796    2799    2802    2805       1
    2796    2823    2820    2814       1    2796    2823   -2820    2805       1
    2793    2790    2826    2829       1    2793    2796    2799    2802       1
    2793    2796    2823    2820       1    2790    2793    2796    2799       3
    2790    2793    2796    2823       3    2787    2784    2781    2829       1
    2787    2790    2793    2796       3    2787    2790   -2826    2829       1
    2784    2781    2829    2826       1    2784    2787    2790    2793       1
    2784    2787   -2790    2826       1    2781    2784    2787    2790       1
    2781    2829   -2826    2790       1    2778    2775    2781    2784       6
    2778    2775    2781    2829       6    2775    2781    2784    2787       1
    2775    2781    2829    2826       1    2775    2724   -2772    2829       5
    2772    2829    2826    2790       1    2772    2829   -2781    2775       1
    2772    2829    2781    2784       1    2772    2724    2775    2778       5
    2772    2724   -2775    2781       5    2769    2772    2829    2826       6
    2769    2772    2829    2781       6    2769    2772    2724    2775       5
    2727    2721    2724    2772       7    2727    2721    2724    2775       7
    2724    2721    2727    2730       1    2724    2772    2829    2826       4
    2724    2772   -2829    2781       4    2724    2775    2781    2784       4
    2724    2775   -2781    2829       4    2721    2724    2772    2769       5
    2721    2724    2772    2829       5    2721    2724    2775    2778       5
    2721    2724    2775    2781       5    2718    2715    2712    2730       1
    2718    2721    2724    2772       7    2718    2721    2724    2775       7
    2718    2721   -2727    2730       1    2715    2712    2730    2727       1
    2715    2718    2721    2724       1    2715    2718   -2721    2727       1
    2712    2709    2706    2733       3    2712    2715    2718    2721       1
    2712    2730   -2727    2721       1    2709    2706    2733    2736       1
    2709    2712    2715    2718       1    2709    2712    2730    2727       1
    2706    2709    2712    2715       3    2706    2709    2712    2730       3
    2703    2700    2697    2736       1    2703    2706    2709    2712       3
    2703    2706   -2733    2736       1    2700    2697    2736    2733       1
    2700    2703    2706    2709       1    2700    2703   -2706    2733       1
    2697    2700    2703    2706       1    2697    2736   -2733    2706       1
    2694    2697    2700    2703       1    2694    2697    2736    2733       1
    5343    5340    5346    5349       1    5337    5334    5331    5349       1
    5337    5340   -5346    5349       1    5334    5331    5349    5346       1
    5334    5337    5340    5343       1    5334    5337   -5340    5346       1
    5331    5328    5325    5352       3    5331    5334    5337    5340       1
    5331    5349   -5346    5340       1    5328    5325    5352    5355       1
    5328    5331    5334    5337       1    5328    5331    5349    5346       1
    5325    5328    5331    5334       3    5325    5328    5331    5349       3
    5322    5319    5316    5355       1    5322    5325    5328    5331       3
    5322    5325   -5352    5355       1    5319    5316    5355    5352       1
    5319    5322    5325    5328       1    5319    5322   -5325    5352       1
    5316    5319    5322    5325       1    5316    5355   -5352    5325       1
    5313    5316    5319    5322       1    5313    5316    5355    5352       1
    5286    5283    5277    5313       4    5283    5277    5313    5316       5
    5283    5268   -5271    5313       4    5280    5277    5283    5286       6
    5280    5277    5313    5316       5    5277    5313    5316    5319       7
    5277    5313    5316    5355       7    5274    5271    5268    5283       6
    5274    5271    5313    5316       5    5274    5271    5313    5277       5
    5271    5268   -5283    5277       1    5271    5268    5283    5286       1
    5271    5313    5316    5319       7    5271    5313    5316    5355       7
    5271    5313    5277    5280       5    5271    5313   -5277    5283       5
    5268    5271    5313    5316       5    5268    5271   -5313    5277       5
    5268    5283    5277    5280       6    5268    5283   -5277    5313       4
    5265    5262    5259    5286       1    5265    5268    5271    5274       6
    5265    5268    5271    5313       4    5265    5268    5283    5277       1
    5265    5268   -5283    5286       1    5262    5259    5286    5283       1
    5262    5265    5268    5271       1    5262    5265   -5268    5283       1
    5259    5256    5253    5289       3    5259    5262    5265    5268       1
    5259    5286    5283    5277       1    5259    5286   -5283    5268       1
    5256    5253    5289    5292       1    5256    5259    5262    5265       1
    5256    5259    5286    5283       1    5253    5256    5259    5262       3
    5253    5256    5259    5286       3    5250    5247    5244    5292       1
    5250    5253    5256    5259       3    5250    5253   -5289    5292       1
    5247    5244    5292    5289       1    5247    5250    5253    5256       1
    5247    5250   -5253    5289       1    5244    5247    5250    5253       1
    5244    5292   -5289    5253       1    5241    5238    5244    5247       6
    5241    5238    5244    5292       6    5238    5244    5247    5250       1
    5238    5244    5292    5289       1    5238    5142   -5235    5292       5
    5235    5292    5289    5253       1    5235    5292   -5244    5238       1
    5235    5292    5244    5247       1    5235    5142    5238    5241       5
    5235    5142   -5238    5244       5    5232    5235    5292    5289       6
    5232    5235    5292    5244       6    5232    5235    5142    5238       5
    5178    5175    5181    5184       1    5178    5175    5181    5187       1
    5172    5169    5166    5187       1    5172    5175    5181    5184       1
    5172    5175   -5181    5187       1    5169    5166    5187    5181       1
    5169    5172    5175    5178       1    5169    5172   -5175    5181       1
    5166    5169    5172    5175       1    5166    5187   -5181    5175       1
    5166    5187    5181    5184       1    5163    5166    5169    5172       1
    5163    5166    5187    5181       1    5160    5163    5166    5169      12
    5160    5163    5166    5187      12    5157    5151    5148    5190       4
    5157    5160    5163    5166      13    5154    5151    5148    5190       6
    5154    5151    5157    5160       5    5151    5157    5160    5163      15
    5151    5157   -5160    5163      16    5151    5157   -5160    5163      17
    5148    5151    5157    5160       5    5145    5139    5142    5235       7
    5145    5139    5142    5238       7    5145    5148    5151    5154       6
    5145    5148    5151    5157       4    5142    5139    5145    5148       1
    5142    5235    5292    5289       4    5142    5235   -5292    5244       4
    5142    5238    5244    5247       4    5142    5238   -5244    5292       4
    5139    5136    5133    5190       1    5139    5142    5235    5232       5
    5139    5142    5235    5292       5    5139    5142    5238    5241       5
    5139    5142    5238    5244       5    5139    5145    5148    5151       1
    5139    5145   -5148    5190       1    5136    5133    5190    5148       1
    5136    5139    5142    5235       7    5136    5139    5142    5238       7
    5136    5139   -5145    5148       1    5133    5136    5139    5142       1
    5133    5136    5139    5145       1    5133    5190   -5148    5145       1
    5133    5190    5148    5151       1    5130    5133    5136    5139       1
    5130    5133    5190    5148       1    5103    5100    5094    5130       4
    5100    5094    5130    5133       5    5100    5085   -5088    5130       4
    5097    5094    5100    5103       6    5097    5094    5130    5133       5
    5094    5130    5133    5136       7    5094    5130    5133    5190       7
    5091    5088    5085    5100       6    5091    5088    5130    5133       5
    5091    5088    5130    5094       5    5088    5085   -5100    5094       1
    5088    5085    5100    5103       1    5088    5130    5133    5136       7
    5088    5130    5133    5190       7    5088    5130    5094    5097       5
    5088    5130   -5094    5100       5    5085    5088    5130    5133       5
    5085    5088   -5130    5094       5    5085    5100    5094    5097       6
    5085    5100   -5094    5130       4    5082    5079    5076    5103       1
    5082    5085    5088    5091       6    5082    5085    5088    5130       4
    5082    5085    5100    5094       1    5082    5085   -5100    5103       1
    5079    5076    5103    5100       1    5079    5082    5085    5088       1
    5079    5082   -5085    5100       1    5076    5073    5070    5106       3
    5076    5079    5082    5085       1    5076    5103    5100    5094       1
    5076    5103   -5100    5085       1    5073    5070    5106    5109       1
    5073    5076    5079    5082       1    5073    5076    5103    5100       1
    5070    5073    5076    5079       3    5070    5073    5076    5103       3
    5067    5064    5061    5109       1    5067    5070    5073    5076       3
    5067    5070   -5106    5109       1    5064    5061    5109    5106       1
    5064    5067    5070    5073       1    5064    5067   -5070    5106       1
    5061    5064    5067    5070       1    5061    5109   -5106    5070       1
    5058    5055    5061    5064       6    5058    5055    5061    5109       6
    5055    5061    5064    5067       1    5055    5061    5109    5106       1
    5055    5010   -5052    5109       5    5052    5109    5106    5070       1
    5052    5109   -5061    5055       1    5052    5109    5061    5064       1
    5052    5010    5055    5058       5    5052    5010   -5055    5061       5
    5049    5052    5109    5106       6    5049    5052    5109    5061       6
    5049    5052    5010    5055       5    5013    5007    5010    5052       7
    5013    5007    5010    5055       7    5010    5007    5013    5016       1
    5010    5052    5109    5106       4    5010    5052   -5109    5061       4
    5010    5055    5061    5064       4    5010    5055   -5061    5109       4
    5007    5010    5052    5049       5    5007    5010    5052    5109       5
    5007    5010    5055    5058       5    5007    5010    5055    5061       5
    5004    5001    4998    5016       1    5004    5007    5010    5052       7
    5004    5007    5010    5055       7    5004    5007   -5013    5016       1
    5001    4998    5016    5013       1    5001    5004    5007    5010       1
    5001    5004   -5007    5013       1    4998    4995    4992    5019       3
    4998    5001    5004    5007       1    4998    5016   -5013    5007       1
    4995    4992    5019    5022       1    4995    4998    5001    5004       1
    4995    4998    5016    5013       1    4992    4995    4998    5001       3
    4992    4995    4998    5016       3    4989    4986    4983    5022       1
    4989    4992    4995    4998       3    4989    4992   -5019    5022       1
    4986    4983    5022    5019       1    4986    4989    4992    4995       1
    4986    4989   -4992    5019       1    4983    4986    4989    4992       1
    4983    5022   -5019    4992       1    4980    4983    4986    4989       1
    4980    4983    5022    5019       1    4953    4950    4944    4980       4
    4950    4944    4980    4983       5    4950    4935   -4938    4980       4
    4947    4944    4950    4953       6    4947    4944    4980    4983       5
    4944    4980    4983    4986       7    4944    4980    4983    5022       7
    4941    4938    4935    4950       6    4941    4938    4980    4983       5
    4941    4938    4980    4944       5    4938    4935   -4950    4944       1
    4938    4935    4950    4953       1    4938    4980    4983    4986       7
    4938    4980    4983    5022       7    4938    4980    4944    4947       5
    4938    4980   -4944    4950       5    4935    4938    4980    4983       5
    4935    4938   -4980    4944       5    4935    4950    4944    4947       6
    4935    4950   -4944    4980       4    4932    4929    4926    4953       1
    4932    4935    4938    4941       6    4932    4935    4938    4980       4
    4932    4935    4950    4944       1    4932    4935   -4950    4953       1
    4929    4926    4953    4950       1    4929    4932    4935    4938       1
    4929    4932   -4935    4950       1    4926    4923    4920    4956       3
    4926    4929    4932    4935       1    4926    4953    4950    4944       1
    4926    4953   -4950    4935       1    4923    4920    4956    4959       1
    4923    4926    4929    4932       1    4923    4926    4953    4950       1
    4920    4923    4926    4929       3    4920    4923    4926    4953       3
    4917    4914    4911    4959       1    4917    4920    4923    4926       3
    4917    4920   -4956    4959       1    4914    4911    4959    4956       1
    4914    4917    4920    4923       1    4914    4917   -4920    4956       1
    4911    4914    4917    4920       1    4911    4959   -4956    4920       1
    4908    4905    4911    4914       6    4908    4905    4911    4959       6
    4905    4911    4914    4917       1    4905    4911    4959    4956       1
    4905    4860   -4902    4959       5    4902    4959    4956    4920       1
    4902    4959   -4911    4905       1    4902    4959    4911    4914       1
    4902    4860    4905    4908       5    4902    4860   -4905    4911       5
    4899    4902    4959    4956       6    4899    4902    4959    4911       6
    4899    4902    4860    4905       5    4863    4857    4860    4902       7
    4863    4857    4860    4905       7    4860    4857    4863    4866       1
    4860    4902    4959    4956       4    4860    4902   -4959    4911       4
    4860    4905    4911    4914       4    4860    4905   -4911    4959       4
    4857    4860    4902    4899       5    4857    4860    4902    4959       5
    4857    4860    4905    4908       5    4857    4860    4905    4911       5
    4854    4851    4848    4866       1    4854    4857    4860    4902       7
    4854    4857    4860    4905       7    4854    4857   -4863    4866       1
    4851    4848    4866    4863       1    4851    4854    4857    4860       1
    4851    4854   -4857    4863       1    4848    4845    4842    4869       3
    4848    4851    4854    4857       1    4848    4866   -4863    4857       1
    4845    4842    4869    4872       1    4845    4848    4851    4854       1
    4845    4848    4866    4863       1    4842    4845    4848    4851       3
    4842    4845    4848    4866       3    4839    4836    4833    4872       1
    4839    4842    4845    4848       3    4839    4842   -4869    4872       1
    4836    4833    4872    4869       1    4836    4839    4842    4845       1
    4836    4839   -4842    4869       1    4833    4836    4839    4842       1
    4833    4872   -4869    4842       1    4830    4833    4836    4839       1
    4830    4833    4872    4869       1    4803    4800    4794    4830       4
    4800    4794    4830    4833       5    4800    4785   -4788    4830       4
    4797    4794    4800    4803       6    4797    4794    4830    4833       5
    4794    4830    4833    4836       7    4794    4830    4833    4872       7
    4791    4788    4785    4800       6    4791    4788    4830    4833       5
    4791    4788    4830    4794       5    4788    4785   -4800    4794       1
    4788    4785    4800    4803       1    4788    4830    4833    4836       7
    4788    4830    4833    4872       7    4788    4830    4794    4797       5
    4788    4830   -4794    4800       5    4785    4788    4830    4833       5
    4785    4788   -4830    4794       5    4785    4800    4794    4797       6
    4785    4800   -4794    4830       4    4782    4779    4776    4803       1
    4782    4785    4788    4791       6    4782    4785    4788    4830       4
    4782    4785    4800    4794       1    4782    4785   -4800    4803       1
    4779    4776    4803    4800       1    4779    4782    4785    4788       1
    4779    4782   -4785    4800       1    4776    4773    4770    4806       3
    4776    4779    4782    4785       1    4776    4803    4800    4794       1
    4776    4803   -4800    4785       1    4773    4770    4806    4809       1
    4773    4776    4779    4782       1    4773    4776    4803    4800       1
    4770    4773    4776    4779       3    4770    4773    4776    4803       3
    4767    4764    4761    4809       1    4767    4770    4773    4776       3
    4767    4770   -4806    4809       1    4764    4761    4809    4806       1
    4764    4767    4770    4773       1    4764    4767   -4770    4806       1
    4761    4764    4767    4770       1    4761    4809   -4806    4770       1
    4758    4755    4761    4764       6    4758    4755    4761    4809       6
    4755    4761    4764    4767       1    4755    4761    4809    4806       1
    4755    4710   -4752    4809       5    4752    4809    4806    4770       1
    4752    4809   -4761    4755       1    4752    4809    4761    4764       1
    4752    4710    4755    4758       5    4752    4710   -4755    4761       5
    4749    4752    4809    4806       6    4749    4752    4809    4761       6
    4749    4752    4710    4755       5    4713    4707    4710    4752       7
    4713    4707    4710    4755       7    4710    4707    4713    4716       1
    4710    4752    4809    4806       4    4710    4752   -4809    4761       4
    4710    4755    4761    4764       4    4710    4755   -4761    4809       4
    4707    4710    4752    4749       5    4707    4710    4752    4809       5
    4707    4710    4755    4758       5    4707    4710    4755    4761       5
    4704    4701    4698    4716       1    4704    4707    4710    4752       7
    4704    4707    4710    4755       7    4704    4707   -4713    4716       1
    4701    4698    4716    4713       1    4701    4704    4707    4710       1
    4701    4704   -4707    4713       1    4698    4695    4692    4719       3
    4698    4701    4704    4707       1    4698    4716   -4713    4707       1
    4695    4692    4719    4722       1    4695    4698    4701    4704       1
    4695    4698    4716    4713       1    4692    4695    4698    4701       3
    4692    4695    4698    4716       3    4689    4686    4683    4722       1
    4689    4692    4695    4698       3    4689    4692   -4719    4722       1
    4686    4683    4722    4719       1    4686    4689    4692    4695       1
    4686    4689   -4692    4719       1    4683    4686    4689    4692       1
    4683    4722   -4719    4692       1    4680    4683    4686    4689       1
    4680    4683    4722    4719       1    4653    4650    4644    4680       4
    4650    4644    4680    4683       5    4650    4635   -4638    4680       4
    4647    4644    4650    4653       6    4647    4644    4680    4683       5
    4644    4680    4683    4686       7    4644    4680    4683    4722       7
    4641    4638    4635    4650       6    4641    4638    4680    4683       5
    4641    4638    4680    4644       5    4638    4635   -4650    4644       1
    4638    4635    4650    4653       1    4638    4680    4683    4686       7
    4638    4680    4683    4722       7    4638    4680    4644    4647       5
    4638    4680   -4644    4650       5    4635    4638    4680    4683       5
    4635    4638   -4680    4644       5    4635    4650    4644    4647       6
    4635    4650   -4644    4680       4    4632    4629    4626    4653       1
    4632    4635    4638    4641       6    4632    4635    4638    4680       4
    4632    4635    4650    4644       1    4632    4635   -4650    4653       1
    4629    4626    4653    4650       1    4629    4632    4635    4638       1
    4629    4632   -4635    4650       1    4626    4623    4620    4656       3
    4626    4629    4632    4635       1    4626    4653    4650    4644       1
    4626    4653   -4650    4635       1    4623    4620    4656    4659       1
    4623    4626    4629    4632       1    4623    4626    4653    4650       1
    4620    4623    4626    4629       3    4620    4623    4626    4653       3
    4617    4614    4611    4659       1    4617    4620    4623    4626       3
    4617    4620   -4656    4659       1    4614    4611    4659    4656       1
    4614    4617    4620    4623       1    4614    4617   -4620    4656       1
    4611    4614    4617    4620       1    4611    4659   -4656    4620       1
    4608    4605    4611    4614       6    4608    4605    4611    4659       6
    4605    4611    4614    4617       1    4605    4611    4659    4656       1
    4605    4560   -4602    4659       5    4602    4659    4656    4620       1
    4602    4659   -4611    4605       1    4602    4659    4611    4614       1
    4602    4560    4605    4608       5    4602    4560   -4605    4611       5
    4599    4602    4659    4656       6    4599    4602    4659    4611       6
    4599    4602    4560    4605       5    4563    4557    4560    4602       7
    4563    4557    4560    4605       7    4560    4557    4563    4566       1
    4560    4602    4659    4656       4    4560    4602   -4659    4611       4
    4560    4605    4611    4614       4    4560    4605   -4611    4659       4
    4557    4560    4602    4599       5    4557    4560    4602    4659       5
    4557    4560    4605    4608       5    4557    4560    4605    4611       5
    4554    4551    4548    4566       1    4554    4557    4560    4602       7
    4554    4557    4560    4605       7    4554    4557   -4563    4566       1
    4551    4548    4566    4563       1    4551    4554    4557    4560       1
    4551    4554   -4557    4563       1    4548    4545    4542    4569       3
    4548    4551    4554    4557       1    4548    4566   -4563    4557       1
    4545    4542    4569    4572       1    4545    4548    4551    4554       1
    4545    4548    4566    4563       1    4542    4545    4548    4551       3
    4542    4545    4548    4566       3    4539    4536    4533    4572       1
    4539    4542    4545    4548       3    4539    4542   -4569    4572       1
    4536    4533    4572    4569       1    4536    4539    4542    4545       1
    4536    4539   -4542    4569       1    4533    4536    4539    4542       1
    4533    4572   -4569    4542       1    4530    4533    4536    4539       1
    4530    4533    4572    4569       1    4503    4500    4494    4530       4
    4500    4494    4530    4533       5    4500    4485   -4488    4530       4
    4497    4494    4500    4503       6    4497    4494    4530    4533       5
    4494    4530    4533    4536       7    4494    4530    4533    4572       7
    4491    4488    4485    4500       6    4491    4488    4530    4533       5
    4491    4488    4530    4494       5    4488    4485   -4500    4494       1
    4488    4485    4500    4503       1    4488    4530    4533    4536       7
    4488    4530    4533    4572       7    4488    4530    4494    4497       5
    4488    4530   -4494    4500       5    4485    4488    4530    4533       5
    4485    4488   -4530    4494       5    4485    4500    4494    4497       6
    4485    4500   -4494    4530       4    4482    4479    4476    4503       1
    4482    4485    4488    4491       6    4482    4485    4488    4530       4
    4482    4485    4500    4494       1    4482    4485   -4500    4503       1
    4479    4476    4503    4500       1    4479    4482    4485    4488       1
    4479    4482   -4485    4500       1    4476    4473    4470    4506       3
    4476    4479    4482    4485       1    4476    4503    4500    4494       1
    4476    4503   -4500    4485       1    4473    4470    4506    4509       1
    4473    4476    4479    4482       1    4473    4476    4503    4500       1
    4470    4473    4476    4479       3    4470    4473    4476    4503       3
    4467    4464    4461    4509       1    4467    4470    4473    4476       3
    4467    4470   -4506    4509       1    4464    4461    4509    4506       1
    4464    4467    4470    4473       1    4464    4467   -4470    4506       1
    4461    4464    4467    4470       1    4461    4509   -4506    4470       1
    4458    4455    4461    4464       6    4458    4455    4461    4509       6
    4455    4461    4464    4467       1    4455    4461    4509    4506       1
    4455    4410   -4452    4509       5    4452    4509    4506    4470       1
    4452    4509   -4461    4455       1    4452    4509    4461    4464       1
    4452    4410    4455    4458       5    4452    4410   -4455    4461       5
    4449    4452    4509    4506       6    4449    4452    4509    4461       6
    4449    4452    4410    4455       5    4413    4407    4410    4452       7
    4413    4407    4410    4455       7    4410    4407    4413    4416       1
    4410    4452    4509    4506       4    4410    4452   -4509    4461       4
    4410    4455    4461    4464       4    4410    4455   -4461    4509       4
    4407    4410    4452    4449       5    4407    4410    4452    4509       5
    4407    4410    4455    4458       5    4407    4410    4455    4461       5
    4404    4401    4398    4416       1    4404    4407    4410    4452       7
    4404    4407    4410    4455       7    4404    4407   -4413    4416       1
    4401    4398    4416    4413       1    4401    4404    4407    4410       1
    4401    4404   -4407    4413       1    4398    4395    4392    4419       3
    4398    4401    4404    4407       1    4398    4416   -4413    4407       1
    4395    4392    4419    4422       1    4395    4398    4401    4404       1
    4395    4398    4416    4413       1    4392    4395    4398    4401       3
    4392    4395    4398    4416       3    4389    4386    4383    4422       1
    4389    4392    4395    4398       3    4389    4392   -4419    4422       1
    4386    4383    4422    4419       1    4386    4389    4392    4395       1
    4386    4389   -4392    4419       1    4383    4386    4389    4392       1
    4383    4422   -4419    4392       1    4380    4383    4386    4389       1
    4380    4383    4422    4419       1    4353    4350    4344    4380       4
    4350    4344    4380    4383       5    4350    4335   -4338    4380       4
    4347    4344    4350    4353       6    4347    4344    4380    4383       5
    4344    4380    4383    4386       7    4344    4380    4383    4422       7
    4341    4338    4335    4350       6    4341    4338    4380    4383       5
    4341    4338    4380    4344       5    4338    4335   -4350    4344       1
    4338    4335    4350    4353       1    4338    4380    4383    4386       7
    4338    4380    4383    4422       7    4338    4380    4344    4347       5
    4338    4380   -4344    4350       5    4335    4338    4380    4383       5
    4335    4338   -4380    4344       5    4335    4350    4344    4347       6
    4335    4350   -4344    4380       4    4332    4329    4326    4353       1
    4332    4335    4338    4341       6    4332    4335    4338    4380       4
    4332    4335    4350    4344       1    4332    4335   -4350    4353       1
    4329    4326    4353    4350       1    4329    4332    4335    4338       1
    4329    4332   -4335    4350       1    4326    4323    4320    4356       3
    4326    4329    4332    4335       1    4326    4353    4350    4344       1
    4326    4353   -4350    4335       1    4323    4320    4356    4359       1
    4323    4326    4329    4332       1    4323    4326    4353    4350       1
    4320    4323    4326    4329       3    4320    4323    4326    4353       3
    4317    4314    4311    4359       1    4317    4320    4323    4326       3
    4317    4320   -4356    4359       1    4314    4311    4359    4356       1
    4314    4317    4320    4323       1    4314    4317   -4320    4356       1
    4311    4314    4317    4320       1    4311    4359   -4356    4320       1
    4308    4305    4311    4314       6    4308    4305    4311    4359       6
    4305    4311    4314    4317       1    4305    4311    4359    4356       1
    4305    4209   -4302    4359       5    4302    4359    4356    4320       1
    4302    4359   -4311    4305       1    4302    4359    4311    4314       1
    4302    4209    4305    4308       5    4302    4209   -4305    4311       5
    4299    4302    4359    4356       6    4299    4302    4359    4311       6
    4299    4302    4209    4305       5    4245    4242    4248    4251       1
    4245    4242    4248    4254       1    4239    4236    4233    4254       1
    4239    4242    4248    4251       1    4239    4242   -4248    4254       1
    4236    4233    4254    4248       1    4236    4239    4242    4245       1
    4236    4239   -4242    4248       1    4233    4236    4239    4242       1
    4233    4254   -4248    4242       1    4233    4254    4248    4251       1
    4230    4233    4236    4239       1    4230    4233    4254    4248       1
    4227    4230    4233    4236      12    4227    4230    4233    4254      12
    4224    4218    4215    4257       4    4224    4227    4230    4233      13
    4221    4218    4215    4257       6    4221    4218    4224    4227       5
    4218    4224    4227    4230      15    4218    4224   -4227    4230      16
    4218    4224   -4227    4230      17    4215    4218    4224    4227       5
    4212    4206    4209    4302       7    4212    4206    4209    4305       7
    4212    4215    4218    4221       6    4212    4215    4218    4224       4
    4209    4206    4212    4215       1    4209    4302    4359    4356       4
    4209    4302   -4359    4311       4    4209    4305    4311    4314       4
    4209    4305   -4311    4359       4    4206    4203    4200    4257       1
    4206    4209    4302    4299       5    4206    4209    4302    4359       5
    4206    4209    4305    4308       5    4206    4209    4305    4311       5
    4206    4212    4215    4218       1    4206    4212   -4215    4257       1
    4203    4200    4257    4215       1    4203    4206    4209    4302       7
    4203    4206    4209    4305       7    4203    4206   -4212    4215       1
    4200    4203    4206    4209       1    4200    4203    4206    4212       1
    4200    4257   -4215    4212       1    4200    4257    4215    4218       1
    4197    4200    4203    4206       1    4197    4200    4257    4215       1
    4170    4167    4161    4197       4    4167    4161    4197    4200       5
    4167    4152   -4155    4197       4    4164    4161    4167    4170       6
    4164    4161    4197    4200       5    4161    4197    4200    4203       7
    4161    4197    4200    4257       7    4158    4155    4152    4167       6
    4158    4155    4197    4200       5    4158    4155    4197    4161       5
    4155    4152   -4167    4161       1    4155    4152    4167    4170       1
    4155    4197    4200    4203       7    4155    4197    4200    4257       7
    4155    4197    4161    4164       5    4155    4197   -4161    4167       5
    4152    4155    4197    4200       5    4152    4155   -4197    4161       5
    4152    4167    4161    4164       6    4152    4167   -4161    4197       4
    4149    4146    4143    4170       1    4149    4152    4155    4158       6
    4149    4152    4155    4197       4    4149    4152    4167    4161       1
    4149    4152   -4167    4170       1    4146    4143    4170    4167       1
    4146    4149    4152    4155       1    4146    4149   -4152    4167       1
    4143    4140    4137    4173       3    4143    4146    4149    4152       1
    4143    4170    4167    4161       1    4143    4170   -4167    4152       1
    4140    4137    4173    4176       1    4140    4143    4146    4149       1
    4140    4143    4170    4167       1    4137    4140    4143    4146       3
    4137    4140    4143    4170       3    4134    4131    4128    4176       1
    4134    4137    4140    4143       3    4134    4137   -4173    4176       1
    4131    4128    4176    4173       1    4131    4134    4137    4140       1
    4131    4134   -4137    4173       1    4128    4131    4134    4137       1
    4128    4176   -4173    4137       1    4125    4122    4128    4131       6
    4125    4122    4128    4176       6    4122    4128    4131    4134       1
    4122    4128    4176    4173       1    4122    4071   -4119    4176       5
    4119    4176    4173    4137       1    4119    4176   -4128    4122       1
    4119    4176    4128    4131       1    4119    4071    4122    4125       5
    4119    4071   -4122    4128       5    4116    4119    4176    4173       6
    4116    4119    4176    4128       6    4116    4119    4071    4122       5
    4074    4068    4071    4119       7    4074    4068    4071    4122       7
    4071    4068    4074    4077       1    4071    4119    4176    4173       4
    4071    4119   -4176    4128       4    4071    4122    4128    4131       4
    4071    4122   -4128    4176       4    4068    4071    4119    4116       5
    4068    4071    4119    4176       5    4068    4071    4122    4125       5
    4068    4071    4122    4128       5    4065    4062    4059    4077       1
    4065    4068    4071    4119       7    4065    4068    4071    4122       7
    4065    4068   -4074    4077       1    4062    4059    4077    4074       1
    4062    4065    4068    4071       1    4062    4065   -4068    4074       1
    4059    4056    4053    4080       3    4059    4062    4065    4068       1
    4059    4077   -4074    4068       1    4056    4053    4080    4083       1
    4056    4059    4062    4065       1    4056    4059    4077    4074       1
    4053    4056    4059    4062       3    4053    4056    4059    4077       3
    4050    4047    4044    4083       1    4050    4053    4056    4059       3
    4050    4053   -4080    4083       1    4047    4044    4083    4080       1
    4047    4050    4053    4056       1    4047    4050   -4053    4080       1
    4044    4047    4050    4053       1    4044    4083   -4080    4053       1
    4041    4044    4047    4050       1    4041    4044    4083    4080       1
    6690    6687    6693    6696       1    6684    6681    6678    6696       1
    6684    6687   -6693    6696       1    6681    6678    6696    6693       1
    6681    6684    6687    6690       1    6681    6684   -6687    6693       1
    6678    6675    6672    6699       3    6678    6681    6684    6687       1
    6678    6696   -6693    6687       1    6675    6672    6699    6702       1
    6675    6678    6681    6684       1    6675    6678    6696    6693       1
    6672    6675    6678    6681       3    6672    6675    6678    6696       3
    6669    6666    6663    6702       1    6669    6672    6675    6678       3
    6669    6672   -6699    6702       1    6666    6663    6702    6699       1
    6666    6669    6672    6675       1    6666    6669   -6672    6699       1
    6663    6666    6669    6672       1    6663    6702   -6699    6672       1
    6660    6663    6666    6669       1    6660    6663    6702    6699       1
    6633    6630    6624    6660       4    6630    6624    6660    6663       5
    6630    6615   -6618    6660       4    6627    6624    6630    6633       6
    6627    6624    6660    6663       5    6624    6660    6663    6666       7
    6624    6660    6663    6702       7    6621    6618    6615    6630       6
    6621    6618    6660    6663       5    6621    6618    6660    6624       5
    6618    6615   -6630    6624       1    6618    6615    6630    6633       1
    6618    6660    6663    6666       7    6618    6660    6663    6702       7
    6618    6660    6624    6627       5    6618    6660   -6624    6630       5
    6615    6618    6660    6663       5    6615    6618   -6660    6624       5
    6615    6630    6624    6627       6    6615    6630   -6624    6660       4
    6612    6609    6606    6633       1    6612    6615    6618    6621       6
    6612    6615    6618    6660       4    6612    6615    6630    6624       1
    6612    6615   -6630    6633       1    6609    6606    6633    6630       1
    6609    6612    6615    6618       1    6609    6612   -6615    6630       1
    6606    6603    6600    6636       3    6606    6609    6612    6615       1
    6606    6633    6630    6624       1    6606    6633   -6630    6615       1
    6603    6600    6636    6639       1    6603    6606    6609    6612       1
    6603    6606    6633    6630       1    6600    6603    6606    6609       3
    6600    6603    6606    6633       3    6597    6594    6591    6639       1
    6597    6600    6603    6606       3    6597    6600   -6636    6639       1
    6594    6591    6639    6636       1    6594    6597    6600    6603       1
    6594    6597   -6600    6636       1    6591    6594    6597    6600       1
    6591    6639   -6636    6600       1    6588    6585    6591    6594       6
    6588    6585    6591    6639       6    6585    6591    6594    6597       1
    6585    6591    6639    6636       1    6585    6489   -6582    6639       5
    6582    6639    6636    6600       1    6582    6639   -6591    6585       1
    6582    6639    6591    6594       1    6582    6489    6585    6588       5
    6582    6489   -6585    6591       5    6579    6582    6639    6636       6
    6579    6582    6639    6591       6    6579    6582    6489    6585       5
    6525    6522    6528    6531       1    6525    6522    6528    6534       1
    6519    6516    6513    6534       1    6519    6522    6528    6531       1
    6519    6522   -6528    6534       1    6516    6513    6534    6528       1
    6516    6519    6522    6525       1    6516    6519   -6522    6528       1
    6513    6516    6519    6522       1    6513    6534   -6528    6522       1
    6513    6534    6528    6531       1    6510    6513    6516    6519       1
    6510    6513    6534    6528       1    6507    6510    6513    6516      12
    6507    6510    6513    6534      12    6504    6498    6495    6537       4
    6504    6507    6510    6513      13    6501    6498    6495    6537       6
    6501    6498    6504    6507       5    6498    6504    6507    6510      15
    6498    6504   -6507    6510      16    6498    6504   -6507    6510      17
    6495    6498    6504    6507       5    6492    6486    6489    6582       7
    6492    6486    6489    6585       7    6492    6495    6498    6501       6
    6492    6495    6498    6504       4    6489    6486    6492    6495       1
    6489    6582    6639    6636       4    6489    6582   -6639    6591       4
    6489    6585    6591    6594       4    6489    6585   -6591    6639       4
    6486    6483    6480    6537       1    6486    6489    6582    6579       5
    6486    6489    6582    6639       5    6486    6489    6585    6588       5
    6486    6489    6585    6591       5    6486    6492    6495    6498       1
    6486    6492   -6495    6537       1    6483    6480    6537    6495       1
    6483    6486    6489    6582       7    6483    6486    6489    6585       7
    6483    6486   -6492    6495       1    6480    6483    6486    6489       1
    6480    6483    6486    6492       1    6480    6537   -6495    6492       1
    6480    6537    6495    6498       1    6477    6480    6483    6486       1
    6477    6480    6537    6495       1    6450    6447    6441    6477       4
    6447    6441    6477    6480       5    6447    6432   -6435    6477       4
    6444    6441    6447    6450       6    6444    6441    6477    6480       5
    6441    6477    6480    6483       7    6441    6477    6480    6537       7
    6438    6435    6432    6447       6    6438    6435    6477    6480       5
    6438    6435    6477    6441       5    6435    6432   -6447    6441       1
    6435    6432    6447    6450       1    6435    6477    6480    6483       7
    6435    6477    6480    6537       7    6435    6477    6441    6444       5
    6435    6477   -6441    6447       5    6432    6435    6477    6480       5
    6432    6435   -6477    6441       5    6432    6447    6441    6444       6
    6432    6447   -6441    6477       4    6429    6426    6423    6450       1
    6429    6432    6435    6438       6    6429    6432    6435    6477       4
    6429    6432    6447    6441       1    6429    6432   -6447    6450       1
    6426    6423    6450    6447       1    6426    6429    6432    6435       1
    6426    6429   -6432    6447       1    6423    6420    6417    6453       3
    6423    6426    6429    6432       1    6423    6450    6447    6441       1
    6423    6450   -6447    6432       1    6420    6417    6453    6456       1
    6420    6423    6426    6429       1    6420    6423    6450    6447       1
    6417    6420    6423    6426       3    6417    6420    6423    6450       3
    6414    6411    6408    6456       1    6414    6417    6420    6423       3
    6414    6417   -6453    6456       1    6411    6408    6456    6453       1
    6411    6414    6417    6420       1    6411    6414   -6417    6453       1
    6408    6411    6414    6417       1    6408    6456   -6453    6417       1
    6405    6402    6408    6411       6    6405    6402    6408    6456       6
    6402    6408    6411    6414       1    6402    6408    6456    6453       1
    6402    6357   -6399    6456       5    6399    6456    6453    6417       1
    6399    6456   -6408    6402       1    6399    6456    6408    6411       1
    6399    6357    6402    6405       5    6399    6357   -6402    6408       5
    6396    6399    6456    6453       6    6396    6399    6456    6408       6
    6396    6399    6357    6402       5    6360    6354    6357    6399       7
    6360    6354    6357    6402       7    6357    6354    6360    6363       1
    6357    6399    6456    6453       4    6357    6399   -6456    6408       4
    6357    6402    6408    6411       4    6357    6402   -6408    6456       4
    6354    6357    6399    6396       5    6354    6357    6399    6456       5
    6354    6357    6402    6405       5    6354    6357    6402    6408       5
    6351    6348    6345    6363       1    6351    6354    6357    6399       7
    6351    6354    6357    6402       7    6351    6354   -6360    6363       1
    6348    6345    6363    6360       1    6348    6351    6354    6357       1
    6348    6351   -6354    6360       1    6345    6342    6339    6366       3
    6345    6348    6351    6354       1    6345    6363   -6360    6354       1
    6342    6339    6366    6369       1    6342    6345    6348    6351       1
    6342    6345    6363    6360       1    6339    6342    6345    6348       3
    6339    6342    6345    6363       3    6336    6333    6330    6369       1
    6336    6339    6342    6345       3    6336    6339   -6366    6369       1
    6333    6330    6369    6366       1    6333    6336    6339    6342       1
    6333    6336   -6339    6366       1    6330    6333    6336    6339       1
    6330    6369   -6366    6339       1    6327    6330    6333    6336       1
    6327    6330    6369    6366       1    6300    6297    6291    6327       4
    6297    6291    6327    6330       5    6297    6282   -6285    6327       4
    6294    6291    6297    6300       6    6294    6291    6327    6330       5
    6291    6327    6330    6333       7    6291    6327    6330    6369       7
    6288    6285    6282    6297       6    6288    6285    6327    6330       5
    6288    6285    6327    6291       5    6285    6282   -6297    6291       1
    6285    6282    6297    6300       1    6285    6327    6330    6333       7
    6285    6327    6330    6369       7    6285    6327    6291    6294       5
    6285    6327   -6291    6297       5    6282    6285    6327    6330       5
    6282    6285   -6327    6291       5    6282    6297    6291    6294       6
    6282    6297   -6291    6327       4    6279    6276    6273    6300       1
    6279    6282    6285    6288       6    6279    6282    6285    6327       4
    6279    6282    6297    6291       1    6279    6282   -6297    6300       1
    6276    6273    6300    6297       1    6276    6279    6282    6285       1
    6276    6279   -6282    6297       1    6273    6270    6267    6303       3
    6273    6276    6279    6282       1    6273    6300    6297    6291       1
    6273    6300   -6297    6282       1    6270    6267    6303    6306       1
    6270    6273    6276    6279       1    6270    6273    6300    6297       1
    6267    6270    6273    6276       3    6267    6270    6273    6300       3
    6264    6261    6258    6306       1    6264    6267    6270    6273       3
    6264    6267   -6303    6306       1    6261    6258    6306    6303       1
    6261    6264    6267    6270       1    6261    6264   -6267    6303       1
    6258    6261    6264    6267       1    6258    6306   -6303    6267       1
    6255    6252    6258    6261       6    6255    6252    6258    6306       6
    6252    6258    6261    6264       1    6252    6258    6306    6303       1
    6252    6207   -6249    6306       5    6249    6306    6303    6267       1
    6249    6306   -6258    6252       1    6249    6306    6258    6261       1
    6249    6207    6252    6255       5    6249    6207   -6252    6258       5
    6246    6249    6306    6303       6    6246    6249    6306    6258       6
    6246    6249    6207    6252       5    6210    6204    6207    6249       7
    6210    6204    6207    6252       7    6207    6204    6210    6213       1
    6207    6249    6306    6303       4    6207    6249   -6306    6258       4
    6207    6252    6258    6261       4    6207    6252   -6258    6306       4
    6204    6207    6249    6246       5    6204    6207    6249    6306       5
    6204    6207    6252    6255       5    6204    6207    6252    6258       5
    6201    6198    6195    6213       1    6201    6204    6207    6249       7
    6201    6204    6207    6252       7    6201    6204   -6210    6213       1
    6198    6195    6213    6210       1    6198    6201    6204    6207       1
    6198    6201   -6204    6210       1    6195    6192    6189    6216       3
    6195    6198    6201    6204       1    6195    6213   -6210    6204       1
    6192    6189    6216    6219       1    6192    6195    6198    6201       1
    6192    6195    6213    6210       1    6189    6192    6195    6198       3
    6189    6192    6195    6213       3    6186    6183    6180    6219       1
    6186    6189    6192    6195       3    6186    6189   -6216    6219       1
    6183    6180    6219    6216       1    6183    6186    6189    6192       1
    6183    6186   -6189    6216       1    6180    6183    6186    6189       1
    6180    6219   -6216    6189       1    6177    6180    6183    6186       1
    6177    6180    6219    6216       1    6150    6147    6141    6177       4
    6147    6141    6177    6180       5    6147    6132   -6135    6177       4
    6144    6141    6147    6150       6    6144    6141    6177    6180       5
    6141    6177    6180    6183       7    6141    6177    6180    6219       7
    6138    6135    6132    6147       6    6138    6135    6177    6180       5
    6138    6135    6177    6141       5    6135    6132   -6147    6141       1
    6135    6132    6147    6150       1    6135    6177    6180    6183       7
    6135    6177    6180    6219       7    6135    6177    6141    6144       5
    6135    6177   -6141    6147       5    6132    6135    6177    6180       5
    6132    6135   -6177    6141       5    6132    6147    6141    6144       6
    6132    6147   -6141    6177       4    6129    6126    6123    6150       1
    6129    6132    6135    6138       6    6129    6132    6135    6177       4
    6129    6132    6147    6141       1    6129    6132   -6147    6150       1
    6126    6123    6150    6147       1    6126    6129    6132    6135       1
    6126    6129   -6132    6147       1    6123    6120    6117    6153       3
    6123    6126    6129    6132       1    6123    6150    6147    6141       1
    6123    6150   -6147    6132       1    6120    6117    6153    6156       1
    6120    6123    6126    6129       1    6120    6123    6150    6147       1
    6117    6120    6123    6126       3    6117    6120    6123    6150       3
    6114    6111    6108    6156       1    6114    6117    6120    6123       3
    6114    6117   -6153    6156       1    6111    6108    6156    6153       1
    6111    6114    6117    6120       1    6111    6114   -6117    6153       1
    6108    6111    6114    6117       1    6108    6156   -6153    6117       1
    6105    6102    6108    6111       6    6105    6102    6108    6156       6
    6102    6108    6111    6114       1    6102    6108    6156    6153       1
    6102    6057   -6099    6156       5    6099    6156    6153    6117       1
    6099    6156   -6108    6102       1    6099    6156    6108    6111       1
    6099    6057    6102    6105       5    6099    6057   -6102    6108       5
    6096    6099    6156    6153       6    6096    6099    6156    6108       6
    6096    6099    6057    6102       5    6060    6054    6057    6099       7
    6060    6054    6057    6102       7    6057    6054    6060    6063       1
    6057    6099    6156    6153       4    6057    6099   -6156    6108       4
    6057    6102    6108    6111       4    6057    6102   -6108    6156       4
    6054    6057    6099    6096       5    6054    6057    6099    6156       5
    6054    6057    6102    6105       5    6054    6057    6102    6108       5
    6051    6048    6045    6063       1    6051    6054    6057    6099       7
    6051    6054    6057    6102       7    6051    6054   -6060    6063       1
    6048    6045    6063    6060       1    6048    6051    6054    6057       1
    6048    6051   -6054    6060       1    6045    6042    6039    6066       3
    6045    6048    6051    6054       1    6045    6063   -6060    6054       1
    6042    6039    6066    6069       1    6042    6045    6048    6051       1
    6042    6045    6063    6060       1    6039    6042    6045    6048       3
    6039    6042    6045    6063       3    6036    6033    6030    6069       1
    6036    6039    6042    6045       3    6036    6039   -6066    6069       1
    6033    6030    6069    6066       1    6033    6036    6039    6042       1
    6033    6036   -6039    6066       1    6030    6033    6036    6039       1
    6030    6069   -6066    6039       1    6027    6030    6033    6036       1
    6027    6030    6069    6066       1    6000    5997    5991    6027       4
    5997    5991    6027    6030       5    5997    5982   -5985    6027       4
    5994    5991    5997    6000       6    5994    5991    6027    6030       5
    5991    6027    6030    6033       7    5991    6027    6030    6069       7
    5988    5985    5982    5997       6    5988    5985    6027    6030       5
    5988    5985    6027    5991       5    5985    5982   -5997    5991       1
    5985    5982    5997    6000       1    5985    6027    6030    6033       7
    5985    6027    6030    6069       7    5985    6027    5991    5994       5
    5985    6027   -5991    5997       5    5982    5985    6027    6030       5
    5982    5985   -6027    5991       5    5982    5997    5991    5994       6
    5982    5997   -5991    6027       4    5979    5976    5973    6000       1
    5979    5982    5985    5988       6    5979    5982    5985    6027       4
    5979    5982    5997    5991       1    5979    5982   -5997    6000       1
    5976    5973    6000    5997       1    5976    5979    5982    5985       1
    5976    5979   -5982    5997       1    5973    5970    5967    6003       3
    5973    5976    5979    5982       1    5973    6000    5997    5991       1
    5973    6000   -5997    5982       1    5970    5967    6003    6006       1
    5970    5973    5976    5979       1    5970    5973    6000    5997       1
    5967    5970    5973    5976       3    5967    5970    5973    6000       3
    5964    5961    5958    6006       1    5964    5967    5970    5973       3
    5964    5967   -6003    6006       1    5961    5958    6006    6003       1
    5961    5964    5967    5970       1    5961    5964   -5967    6003       1
    5958    5961    5964    5967       1    5958    6006   -6003    5967       1
    5955    5952    5958    5961       6    5955    5952    5958    6006       6
    5952    5958    5961    5964       1    5952    5958    6006    6003       1
    5952    5907   -5949    6006       5    5949    6006    6003    5967       1
    5949    6006   -5958    5952       1    5949    6006    5958    5961       1
    5949    5907    5952    5955       5    5949    5907   -5952    5958       5
    5946    5949    6006    6003       6    5946    5949    6006    5958       6
    5946    5949    5907    5952       5    5910    5904    5907    5949       7
    5910    5904    5907    5952       7    5907    5904    5910    5913       1
    5907    5949    6006    6003       4    5907    5949   -6006    5958       4
    5907    5952    5958    5961       4    5907    5952   -5958    6006       4
    5904    5907    5949    5946       5    5904    5907    5949    6006       5
    5904    5907    5952    5955       5    5904    5907    5952    5958       5
    5901    5898    5895    5913       1    5901    5904    5907    5949       7
    5901    5904    5907    5952       7    5901    5904   -5910    5913       1
    5898    5895    5913    5910       1    5898    5901    5904    5907       1
    5898    5901   -5904    5910       1    5895    5892    5889    5916       3
    5895    5898    5901    5904       1    5895    5913   -5910    5904       1
    5892    5889    5916    5919       1    5892    5895    5898    5901       1
    5892    5895    5913    5910       1    5889    5892    5895    5898       3
    5889    5892    5895    5913       3    5886    5883    5880    5919       1
    5886    5889    5892    5895       3    5886    5889   -5916    5919       1
    5883    5880    5919    5916       1    5883    5886    5889    5892       1
    5883    5886   -5889    5916       1    5880    5883    5886    5889       1
    5880    5919   -5916    5889       1    5877    5880    5883    5886       1
    5877    5880    5919    5916       1    5850    5847    5841    5877       4
    5847    5841    5877    5880       5    5847    5832   -5835    5877       4
    5844    5841    5847    5850       6    5844    5841    5877    5880       5
    5841    5877    5880    5883       7    5841    5877    5880    5919       7
    5838    5835    5832    5847       6    5838    5835    5877    5880       5
    5838    5835    5877    5841       5    5835    5832   -5847    5841       1
    5835    5832    5847    5850       1    5835    5877    5880    5883       7
    5835    5877    5880    5919       7    5835    5877    5841    5844       5
    5835    5877   -5841    5847       5    5832    5835    5877    5880       5
    5832    5835   -5877    5841       5    5832    5847    5841    5844       6
    5832    5847   -5841    5877       4    5829    5826    5823    5850       1
    5829    5832    5835    5838       6    5829    5832    5835    5877       4
    5829    5832    5847    5841       1    5829    5832   -5847    5850       1
    5826    5823    5850    5847       1    5826    5829    5832    5835       1
    5826    5829   -5832    5847       1    5823    5820    5817    5853       3
    5823    5826    5829    5832       1    5823    5850    5847    5841       1
    5823    5850   -5847    5832       1    5820    5817    5853    5856       1
    5820    5823    5826    5829       1    5820    5823    5850    5847       1
    5817    5820    5823    5826       3    5817    5820    5823    5850       3
    5814    5811    5808    5856       1    5814    5817    5820    5823       3
    5814    5817   -5853    5856       1    5811    5808    5856    5853       1
    5811    5814    5817    5820       1    5811    5814   -5817    5853       1
    5808    5811    5814    5817       1    5808    5856   -5853    5817       1
    5805    5802    5808    5811       6    5805    5802    5808    5856       6
    5802    5808    5811    5814       1    5802    5808    5856    5853       1
    5802    5757   -5799    5856       5    5799    5856    5853    5817       1
    5799    5856   -5808    5802       1    5799    5856    5808    5811       1
    5799    5757    5802    5805       5    5799    5757   -5802    5808       5
    5796    5799    5856    5853       6    5796    5799    5856    5808       6
    5796    5799    5757    5802       5    5760    5754    5757    5799       7
    5760    5754    5757    5802       7    5757    5754    5760    5763       1
    5757    5799    5856    5853       4    5757    5799   -5856    5808       4
    5757    5802    5808    5811       4    5757    5802   -5808    5856       4
    5754    5757    5799    5796       5    5754    5757    5799    5856       5
    5754    5757    5802    5805       5    5754    5757    5802    5808       5
    5751    5748    5745    5763       1    5751    5754    5757    5799       7
    5751    5754    5757    5802       7    5751    5754   -5760    5763       1
    5748    5745    5763    5760       1    5748    5751    5754    5757       1
    5748    5751   -5754    5760       1    5745    5742    5739    5766       3
    5745    5748    5751    5754       1    5745    5763   -5760    5754       1
    5742    5739    5766    5769       1    5742    5745    5748    5751       1
    5742    5745    5763    5760       1    5739    5742    5745    5748       3
    5739    5742    5745    5763       3    5736    5733    5730    5769       1
    5736    5739    5742    5745       3    5736    5739   -5766    5769       1
    5733    5730    5769    5766       1    5733    5736    5739    5742       1
    5733    5736   -5739    5766       1    5730    5733    5736    5739       1
    5730    5769   -5766    5739       1    5727    5730    5733    5736       1
    5727    5730    5769    5766       1    5700    5697    5691    5727       4
    5697    5691    5727    5730       5    5697    5682   -5685    5727       4
    5694    5691    5697    5700       6    5694    5691    5727    5730       5
    5691    5727    5730    5733       7    5691    5727    5730    5769       7
    5688    5685    5682    5697       6    5688    5685    5727    5730       5
    5688    5685    5727    5691       5    5685    5682   -5697    5691       1
    5685    5682    5697    5700       1    5685    5727    5730    5733       7
    5685    5727    5730    5769       7    5685    5727    5691    5694       5
    5685    5727   -5691    5697       5    5682    5685    5727    5730       5
    5682    5685   -5727    5691       5    5682    5697    5691    5694       6
    5682    5697   -5691    5727       4    5679    5676    5673    5700       1
    5679    5682    5685    5688       6    5679    5682    5685    5727       4
    5679    5682    5697    5691       1    5679    5682   -5697    5700       1
    5676    5673    5700    5697       1    5676    5679    5682    5685       1
    5676    5679   -5682    5697       1    5673    5670    5667    5703       3
    5673    5676    5679    5682       1    5673    5700    5697    5691       1
    5673    5700   -5697    5682       1    5670    5667    5703    5706       1
    5670    5673    5676    5679       1    5670    5673    5700    5697       1
    5667    5670    5673    5676       3    5667    5670    5673    5700       3
    5664    5661    5658    5706       1    5664    5667    5670    5673       3
    5664    5667   -5703    5706       1    5661    5658    5706    5703       1
    5661    5664    5667    5670       1    5661    5664   -5667    5703       1
    5658    5661    5664    5667       1    5658    5706   -5703    5667       1
    5655    5652    5658    5661       6    5655    5652    5658    5706       6
    5652    5658    5661    5664       1    5652    5658    5706    5703       1
    5652    5556   -5649    5706       5    5649    5706    5703    5667       1
    5649    5706   -5658    5652       1    5649    5706    5658    5661       1
    5649    5556    5652    5655       5    5649    5556   -5652    5658       5
    5646    5649    5706    5703       6    5646    5649    5706    5658       6
    5646    5649    5556    5652       5    5592    5589    5595    5598       1
    5592    5589    5595    5601       1    5586    5583    5580    5601       1
    5586    5589    5595    5598       1    5586    5589   -5595    5601       1
    5583    5580    5601    5595       1    5583    5586    5589    5592       1
    5583    5586   -5589    5595       1    5580    5583    5586    5589       1
    5580    5601   -5595    5589       1    5580    5601    5595    5598       1
    5577    5580    5583    5586       1    5577    5580    5601    5595       1
    5574    5577    5580    5583      12    5574    5577    5580    5601      12
    5571    5565    5562    5604       4    5571    5574    5577    5580      13
    5568    5565    5562    5604       6    5568    5565    5571    5574       5
    5565    5571    5574    5577      15    5565    5571   -5574    5577      16
    5565    5571   -5574    5577      17    5562    5565    5571    5574       5
    5559    5553    5556    5649       7    5559    5553    5556    5652       7
    5559    5562    5565    5568       6    5559    5562    5565    5571       4
    5556    5553    5559    5562       1    5556    5649    5706    5703       4
    5556    5649   -5706    5658       4    5556    5652    5658    5661       4
    5556    5652   -5658    5706       4    5553    5550    5547    5604       1
    5553    5556    5649    5646       5    5553    5556    5649    5706       5
    5553    5556    5652    5655       5    5553    5556    5652    5658       5
    5553    5559    5562    5565       1    5553    5559   -5562    5604       1
    5550    5547    5604    5562       1    5550    5553    5556    5649       7
    5550    5553    5556    5652       7    5550    5553   -5559    5562       1
    5547    5550    5553    5556       1    5547    5550    5553    5559       1
    5547    5604   -5562    5559       1    5547    5604    5562    5565       1
    5544    5547    5550    5553       1    5544    5547    5604    5562       1
    5517    5514    5508    5544       4    5514    5508    5544    5547       5
    5514    5499   -5502    5544       4    5511    5508    5514    5517       6
    5511    5508    5544    5547       5    5508    5544    5547    5550       7
    5508    5544    5547    5604       7    5505    5502    5499    5514       6
    5505    5502    5544    5547       5    5505    5502    5544    5508       5
    5502    5499   -5514    5508       1    5502    5499    5514    5517       1
    5502    5544    5547    5550       7    5502    5544    5547    5604       7
    5502    5544    5508    5511       5    5502    5544   -5508    5514       5
    5499    5502    5544    5547       5    5499    5502   -5544    5508       5
    5499    5514    5508    5511       6    5499    5514   -5508    5544       4
    5496    5493    5490    5517       1    5496    5499    5502    5505       6
    5496    5499    5502    5544       4    5496    5499    5514    5508       1
    5496    5499   -5514    5517       1    5493    5490    5517    5514       1
    5493    5496    5499    5502       1    5493    5496   -5499    5514       1
    5490    5487    5484    5520       3    5490    5493    5496    5499       1
    5490    5517    5514    5508       1    5490    5517   -5514    5499       1
    5487    5484    5520    5523       1    5487    5490    5493    5496       1
    5487    5490    5517    5514       1    5484    5487    5490    5493       3
    5484    5487    5490    5517       3    5481    5478    5475    5523       1
    5481    5484    5487    5490       3    5481    5484   -5520    5523       1
    5478    5475    5523    5520       1    5478    5481    5484    5487       1
    5478    5481   -5484    5520       1    5475    5478    5481    5484       1
    5475    5523   -5520    5484       1    5472    5469    5475    5478       6
    5472    5469    5475    5523       6    5469    5475    5478    5481       1
    5469    5475    5523    5520       1    5469    5418   -5466    5523       5
    5466    5523    5520    5484       1    5466    5523   -5475    5469       1
    5466    5523    5475    5478       1    5466    5418    5469    5472       5
    5466    5418   -5469    5475       5    5463    5466    5523    5520       6
    5463    5466    5523    5475       6    5463    5466    5418    5469       5
    5421    5415    5418    5466       7    5421    5415    5418    5469       7
    5418    5415    5421    5424       1    5418    5466    5523    5520       4
    5418    5466   -5523    5475       4    5418    5469    5475    5478       4
    5418    5469   -5475    5523       4    5415    5418    5466    5463       5
    5415    5418    5466    5523       5    5415    5418    5469    5472       5
    5415    5418    5469    5475       5    5412    5409    5406    5424       1
    5412    5415    5418    5466       7    5412    5415    5418    5469       7
    5412    5415   -5421    5424       1    5409    5406    5424    5421       1
    5409    5412    5415    5418       1    5409    5412   -5415    5421       1
    5406    5403    5400    5427       3    5406    5409    5412    5415       1
    5406    5424   -5421    5415       1    5403    5400    5427    5430       1
    5403    5406    5409    5412       1    5403    5406    5424    5421       1
    5400    5403    5406    5409       3    5400    5403    5406    5424       3
    5397    5394    5391    5430       1    5397    5400    5403    5406       3
    5397    5400   -5427    5430       1    5394    5391    5430    5427       1
    5394    5397    5400    5403       1    5394    5397   -5400    5427       1
    5391    5394    5397    5400       1    5391    5430   -5427    5400       1
    5388    5391    5394    5397       1    5388    5391    5430    5427       1
    8037    8034    8040    8043       1    8031    8028    8025    8043       1
    8031    8034   -8040    8043       1    8028    8025    8043    8040       1
    8028    8031    8034    8037       1    8028    8031   -8034    8040       1
    8025    8022    8019    8046       3    8025    8028    8031    8034       1
    8025    8043   -8040    8034       1    8022    8019    8046    8049       1
    8022    8025    8028    8031       1    8022    8025    8043    8040       1
    8019    8022    8025    8028       3    8019    8022    8025    8043       3
    8016    8013    8010    8049       1    8016    8019    8022    8025       3
    8016    8019   -8046    8049       1    8013    8010    8049    8046       1
    8013    8016    8019    8022       1    8013    8016   -8019    8046       1
    8010    8013    8016    8019       1    8010    8049   -8046    8019       1
    8007    8010    8013    8016       1    8007    8010    8049    8046       1
    7980    7977    7971    8007       4    7977    7971    8007    8010       5
    7977    7962   -7965    8007       4    7974    7971    7977    7980       6
    7974    7971    8007    8010       5    7971    8007    8010    8013       7
    7971    8007    8010    8049       7    7968    7965    7962    7977       6
    7968    7965    8007    8010       5    7968    7965    8007    7971       5
    7965    7962   -7977    7971       1    7965    7962    7977    7980       1
    7965    8007    8010    8013       7    7965    8007    8010    8049       7
    7965    8007    7971    7974       5    7965    8007   -7971    7977       5
    7962    7965    8007    8010       5    7962    7965   -8007    7971       5
    7962    7977    7971    7974       6    7962    7977   -7971    8007       4
    7959    7956    7953    7980       1    7959    7962    7965    7968       6
    7959    7962    7965    8007       4    7959    7962    7977    7971       1
    7959    7962   -7977    7980       1    7956    7953    7980    7977       1
    7956    7959    7962    7965       1    7956    7959   -7962    7977       1
    7953    7950    7947    7983       3    7953    7956    7959    7962       1
    7953    7980    7977    7971       1    7953    7980   -7977    7962       1
    7950    7947    7983    7986       1    7950    7953    7956    7959       1
    7950    7953    7980    7977       1    7947    7950    7953    7956       3
    7947    7950    7953    7980       3    7944    7941    7938    7986       1
    7944    7947    7950    7953       3    7944    7947   -7983    7986       1
    7941    7938    7986    7983       1    7941    7944    7947    7950       1
    7941    7944   -7947    7983       1    7938    7941    7944    7947       1
    7938    7986   -7983    7947       1    7935    7932    7938    7941       6
    7935    7932    7938    7986       6    7932    7938    7941    7944       1
    7932    7938    7986    7983       1    7932    7836   -7929    7986       5
    7929    7986    7983    7947       1    7929    7986   -7938    7932       1
    7929    7986    7938    7941       1    7929    7836    7932    7935       5
    7929    7836   -7932    7938       5    7926    7929    7986    7983       6
    7926    7929    7986    7938       6    7926    7929    7836    7932       5
    7872    7869    7875    7878       1    7872    7869    7875    7881       1
    7866    7863    7860    7881       1    7866    7869    7875    7878       1
    7866    7869   -7875    7881       1    7863    7860    7881    7875       1
    7863    7866    7869    7872       1    7863    7866   -7869    7875       1
    7860    7863    7866    7869       1    7860    7881   -7875    7869       1
    7860    7881    7875    7878       1    7857    7860    7863    7866       1
    7857    7860    7881    7875       1    7854    7857    7860    7863      12
    7854    7857    7860    7881      12    7851    7845    7842    7884       4
    7851    7854    7857    7860      13    7848    7845    7842    7884       6
    7848    7845    7851    7854       5    7845    7851    7854    7857      15
    7845    7851   -7854    7857      16    7845    7851   -7854    7857      17
    7842    7845    7851    7854       5    7839    7833    7836    7929       7
    7839    7833    7836    7932       7    7839    7842    7845    7848       6
    7839    7842    7845    7851       4    7836    7833    7839    7842       1
    7836    7929    7986    7983       4    7836    7929   -7986    7938       4
    7836    7932    7938    7941       4    7836    7932   -7938    7986       4
    7833    7830    7827    7884       1    7833    7836    7929    7926       5
    7833    7836    7929    7986       5    7833    7836    7932    7935       5
    7833    7836    7932    7938       5    7833    7839    7842    7845       1
    7833    7839   -7842    7884       1    7830    7827    7884    7842       1
    7830    7833    7836    7929       7    7830    7833    7836    7932       7
    7830    7833   -7839    7842       1    7827    7830    7833    7836       1
    7827    7830    7833    7839       1    7827    7884   -7842    7839       1
    7827    7884    7842    7845       1    7824    7827    7830    7833       1
    7824    7827    7884    7842       1    7797    7794    7788    7824       4
    7794    7788    7824    7827       5    7794    7779   -7782    7824       4
    7791    7788    7794    7797       6    7791    7788    7824    7827       5
    7788    7824    7827    7830       7    7788    7824    7827    7884       7
    7785    7782    7779    7794       6    7785    7782    7824    7827       5
    7785    7782    7824    7788       5    7782    7779   -7794    7788       1
    7782    7779    7794    7797       1    7782    7824    7827    7830       7
    7782    7824    7827    7884       7    7782    7824    7788    7791       5
    7782    7824   -7788    7794       5    7779    7782    7824    7827       5
    7779    7782   -7824    7788       5    7779    7794    7788    7791       6
    7779    7794   -7788    7824       4    7776    7773    7770    7797       1
    7776    7779    7782    7785       6    7776    7779    7782    7824       4
    7776    7779    7794    7788       1    7776    7779   -7794    7797       1
    7773    7770    7797    7794       1    7773    7776    7779    7782       1
    7773    7776   -7779    7794       1    7770    7767    7764    7800       3
    7770    7773    7776    7779       1    7770    7797    7794    7788       1
    7770    7797   -7794    7779       1    7767    7764    7800    7803       1
    7767    7770    7773    7776       1    7767    7770    7797    7794       1
    7764    7767    7770    7773       3    7764    7767    7770    7797       3
    7761    7758    7755    7803       1    7761    7764    7767    7770       3
    7761    7764   -7800    7803       1    7758    7755    7803    7800       1
    7758    7761    7764    7767       1    7758    7761   -7764    7800       1
    7755    7758    7761    7764       1    7755    7803   -7800    7764       1
    7752    7749    7755    7758       6    7752    7749    7755    7803       6
    7749    7755    7758    7761       1    7749    7755    7803    7800       1
    7749    7704   -7746    7803       5    7746    7803    7800    7764       1
    7746    7803   -7755    7749       1    7746    7803    7755    7758       1
    7746    7704    7749    7752       5    7746    7704   -7749    7755       5
    7743    7746    7803    7800       6    7743    7746    7803    7755       6
    7743    7746    7704    7749       5    7707    7701    7704    7746       7
    7707    7701    7704    7749       7    7704    7701    7707    7710       1
    7704    7746    7803    7800       4    7704    7746   -7803    7755       4
    7704    7749    7755    7758       4    7704    7749   -7755    7803       4
    7701    7704    7746    7743       5    7701    7704    7746    7803       5
    7701    7704    7749    7752       5    7701    7704    7749    7755       5
    7698    7695    7692    7710       1    7698    7701    7704    7746       7
    7698    7701    7704    7749       7    7698    7701   -7707    7710       1
    7695    7692    7710    7707       1    7695    7698    7701    7704       1
    7695    7698   -7701    7707       1    7692    7689    7686    7713       3
    7692    7695    7698    7701       1    7692    7710   -7707    7701       1
    7689    7686    7713    7716       1    7689    7692    7695    7698       1
    7689    7692    7710    7707       1    7686    7689    7692    7695       3
    7686    7689    7692    7710       3    7683    7680    7677    7716       1
    7683    7686    7689    7692       3    7683    7686   -7713    7716       1
    7680    7677    7716    7713       1    7680    7683    7686    7689       1
    7680    7683   -7686    7713       1    7677    7680    7683    7686       1
    7677    7716   -7713    7686       1    7674    7677    7680    7683       1
    7674    7677    7716    7713       1    7647    7644    7638    7674       4
    7644    7638    7674    7677       5    7644    7629   -7632    7674       4
    7641    7638    7644    7647       6    7641    7638    7674    7677       5
    7638    7674    7677    7680       7    7638    7674    7677    7716       7
    7635    7632    7629    7644       6    7635    7632    7674    7677       5
    7635    7632    7674    7638       5    7632    7629   -7644    7638       1
    7632    7629    7644    7647       1    7632    7674    7677    7680       7
    7632    7674    7677    7716       7    7632    7674    7638    7641       5
    7632    7674   -7638    7644       5    7629    7632    7674    7677       5
    7629    7632   -7674    7638       5    7629    7644    7638    7641       6
    7629    7644   -7638    7674       4    7626    7623    7620    7647       1
    7626    7629    7632    7635       6    7626    7629    7632    7674       4
    7626    7629    7644    7638       1    7626    7629   -7644    7647       1
    7623    7620    7647    7644       1    7623    7626    7629    7632       1
    7623    7626   -7629    7644       1    7620    7617    7614    7650       3
    7620    7623    7626    7629       1    7620    7647    7644    7638       1
    7620    7647   -7644    7629       1    7617    7614    7650    7653       1
    7617    7620    7623    7626       1    7617    7620    7647    7644       1
    7614    7617    7620    7623       3    7614    7617    7620    7647       3
    7611    7608    7605    7653       1    7611    7614    7617    7620       3
    7611    7614   -7650    7653       1    7608    7605    7653    7650       1
    7608    7611    7614    7617       1    7608    7611   -7614    7650       1
    7605    7608    7611    7614       1    7605    7653   -7650    7614       1
    7602    7599    7605    7608       6    7602    7599    7605    7653       6
    7599    7605    7608    7611       1    7599    7605    7653    7650       1
    7599    7554   -7596    7653       5    7596    7653    7650    7614       1
    7596    7653   -7605    7599       1    7596    7653    7605    7608       1
    7596    7554    7599    7602       5    7596    7554   -7599    7605       5
    7593    7596    7653    7650       6    7593    7596    7653    7605       6
    7593    7596    7554    7599       5    7557    7551    7554    7596       7
    7557    7551    7554    7599       7    7554    7551    7557    7560       1
    7554    7596    7653    7650       4    7554    7596   -7653    7605       4
    7554    7599    7605    7608       4    7554    7599   -7605    7653       4
    7551    7554    7596    7593       5    7551    7554    7596    7653       5
    7551    7554    7599    7602       5    7551    7554    7599    7605       5
    7548    7545    7542    7560       1    7548    7551    7554    7596       7
    7548    7551    7554    7599       7    7548    7551   -7557    7560       1
    7545    7542    7560    7557       1    7545    7548    7551    7554       1
    7545    7548   -7551    7557       1    7542    7539    7536    7563       3
    7542    7545    7548    7551       1    7542    7560   -7557    7551       1
    7539    7536    7563    7566       1    7539    7542    7545    7548       1
    7539    7542    7560    7557       1    7536    7539    7542    7545       3
    7536    7539    7542    7560       3    7533    7530    7527    7566       1
    7533    7536    7539    7542       3    7533    7536   -7563    7566       1
    7530    7527    7566    7563       1    7530    7533    7536    7539       1
    7530    7533   -7536    7563       1    7527    7530    7533    7536       1
    7527    7566   -7563    7536       1    7524    7527    7530    7533       1
    7524    7527    7566    7563       1    7497    7494    7488    7524       4
    7494    7488    7524    7527       5    7494    7479   -7482    7524       4
    7491    7488    7494    7497       6    7491    7488    7524    7527       5
    7488    7524    7527    7530       7    7488    7524    7527    7566       7
    7485    7482    7479    7494       6    7485    7482    7524    7527       5
    7485    7482    7524    7488       5    7482    7479   -7494    7488       1
    7482    7479    7494    7497       1    7482    7524    7527    7530       7
    7482    7524    7527    7566       7    7482    7524    7488    7491       5
    7482    7524   -7488    7494       5    7479    7482    7524    7527       5
    7479    7482   -7524    7488       5    7479    7494    7488    7491       6
    7479    7494   -7488    7524       4    7476    7473    7470    7497       1
    7476    7479    7482    7485       6    7476    7479    7482    7524       4
    7476    7479    7494    7488       1    7476    7479   -7494    7497       1
    7473    7470    7497    7494       1    7473    7476    7479    7482       1
    7473    7476   -7479    7494       1    7470    7467    7464    7500       3
    7470    7473    7476    7479       1    7470    7497    7494    7488       1
    7470    7497   -7494    7479       1    7467    7464    7500    7503       1
    7467    7470    7473    7476       1    7467    7470    7497    7494       1
    7464    7467    7470    7473       3    7464    7467    7470    7497       3
    7461    7458    7455    7503       1    7461    7464    7467    7470       3
    7461    7464   -7500    7503       1    7458    7455    7503    7500       1
    7458    7461    7464    7467       1    7458    7461   -7464    7500       1
    7455    7458    7461    7464       1    7455    7503   -7500    7464       1
    7452    7449    7455    7458       6    7452    7449    7455    7503       6
    7449    7455    7458    7461       1    7449    7455    7503    7500       1
    7449    7404   -7446    7503       5    7446    7503    7500    7464       1
    7446    7503   -7455    7449       1    7446    7503    7455    7458       1
    7446    7404    7449    7452       5    7446    7404   -7449    7455       5
    7443    7446    7503    7500       6    7443    7446    7503    7455       6
    7443    7446    7404    7449       5    7407    7401    7404    7446       7
    7407    7401    7404    7449       7    7404    7401    7407    7410       1
    7404    7446    7503    7500       4    7404    7446   -7503    7455       4
    7404    7449    7455    7458       4    7404    7449   -7455    7503       4
    7401    7404    7446    7443       5    7401    7404    7446    7503       5
    7401    7404    7449    7452       5    7401    7404    7449    7455       5
    7398    7395    7392    7410       1    7398    7401    7404    7446       7
    7398    7401    7404    7449       7    7398    7401   -7407    7410       1
    7395    7392    7410    7407       1    7395    7398    7401    7404       1
    7395    7398   -7401    7407       1    7392    7389    7386    7413       3
    7392    7395    7398    7401       1    7392    7410   -7407    7401       1
    7389    7386    7413    7416       1    7389    7392    7395    7398       1
    7389    7392    7410    7407       1    7386    7389    7392    7395       3
    7386    7389    7392    7410       3    7383    7380    7377    7416       1
    7383    7386    7389    7392       3    7383    7386   -7413    7416       1
    7380    7377    7416    7413       1    7380    7383    7386    7389       1
    7380    7383   -7386    7413       1    7377    7380    7383    7386       1
    7377    7416   -7413    7386       1    7374    7377    7380    7383       1
    7374    7377    7416    7413       1    7347    7344    7338    7374       4
    7344    7338    7374    7377       5    7344    7329   -7332    7374       4
    7341    7338    7344    7347       6    7341    7338    7374    7377       5
    7338    7374    7377    7380       7    7338    7374    7377    7416       7
    7335    7332    7329    7344       6    7335    7332    7374    7377       5
    7335    7332    7374    7338       5    7332    7329   -7344    7338       1
    7332    7329    7344    7347       1    7332    7374    7377    7380       7
    7332    7374    7377    7416       7    7332    7374    7338    7341       5
    7332    7374   -7338    7344       5    7329    7332    7374    7377       5
    7329    7332   -7374    7338       5    7329    7344    7338    7341       6
    7329    7344   -7338    7374       4    7326    7323    7320    7347       1
    7326    7329    7332    7335       6    7326    7329    7332    7374       4
    7326    7329    7344    7338       1    7326    7329   -7344    7347       1
    7323    7320    7347    7344       1    7323    7326    7329    7332       1
    7323    7326   -7329    7344       1    7320    7317    7314    7350       3
    7320    7323    7326    7329       1    7320    7347    7344    7338       1
    7320    7347   -7344    7329       1    7317    7314    7350    7353       1
    7317    7320    7323    7326       1    7317    7320    7347    7344       1
    7314    7317    7320    7323       3    7314    7317    7320    7347       3
    7311    7308    7305    7353       1    7311    7314    7317    7320       3
    7311    7314   -7350    7353       1    7308    7305    7353    7350       1
    7308    7311    7314    7317       1    7308    7311   -7314    7350       1
    7305    7308    7311    7314       1    7305    7353   -7350    7314       1
    7302    7299    7305    7308       6    7302    7299    7305    7353       6
    7299    7305    7308    7311       1    7299    7305    7353    7350       1
    7299    7254   -7296    7353       5    7296    7353    7350    7314       1
    7296    7353   -7305    7299       1    7296    7353    7305    7308       1
    7296    7254    7299    7302       5    7296    7254   -7299    7305       5
    7293    7296    7353    7350       6    7293    7296    7353    7305       6
    7293    7296    7254    7299       5    7257    7251    7254    7296       7
    7257    7251    7254    7299       7    7254    7251    7257    7260       1
    7254    7296    7353    7350       4    7254    7296   -7353    7305       4
    7254    7299    7305    7308       4    7254    7299   -7305    7353       4
    7251    7254    7296    7293       5    7251    7254    7296    7353       5
    7251    7254    7299    7302       5    7251    7254    7299    7305       5
    7248    7245    7242    7260       1    7248    7251    7254    7296       7
    7248    7251    7254    7299       7    7248    7251   -7257    7260       1
    7245    7242    7260    7257       1    7245    7248    7251    7254       1
    7245    7248   -7251    7257       1    7242    7239    7236    7263       3
    7242    7245    7248    7251       1    7242    7260   -7257    7251       1
    7239    7236    7263    7266       1    7239    7242    7245    7248       1
    7239    7242    7260    7257       1    7236    7239    7242    7245       3
    7236    7239    7242    7260       3    7233    7230    7227    7266       1
    7233    7236    7239    7242       3    7233    7236   -7263    7266       1
    7230    7227    7266    7263       1    7230    7233    7236    7239       1
    7230    7233   -7236    7263       1    7227    7230    7233    7236       1
    7227    7266   -7263    7236       1    7224    7227    7230    7233       1
    7224    7227    7266    7263       1    7197    7194    7188    7224       4
    7194    7188    7224    7227       5    7194    7179   -7182    7224       4
    7191    7188    7194    7197       6    7191    7188    7224    7227       5
    7188    7224    7227    7230       7    7188    7224    7227    7266       7
    7185    7182    7179    7194       6    7185    7182    7224    7227       5
    7185    7182    7224    7188       5    7182    7179   -7194    7188       1
    7182    7179    7194    7197       1    7182    7224    7227    7230       7
    7182    7224    7227    7266       7    7182    7224    7188    7191       5
    7182    7224   -7188    7194       5    7179    7182    7224    7227       5
    7179    7182   -7224    7188       5    7179    7194    7188    7191       6
    7179    7194   -7188    7224       4    7176    7173    7170    7197       1
    7176    7179    7182    7185       6    7176    7179    7182    7224       4
    7176    7179    7194    7188       1    7176    7179   -7194    7197       1
    7173    7170    7197    7194       1    7173    7176    7179    7182       1
    7173    7176   -7179    7194       1    7170    7167    7164    7200       3
    7170    7173    7176    7179       1    7170    7197    7194    7188       1
    7170    7197   -7194    7179       1    7167    7164    7200    7203       1
    7167    7170    7173    7176       1    7167    7170    7197    7194       1
    7164    7167    7170    7173       3    7164    7167    7170    7197       3
    7161    7158    7155    7203       1    7161    7164    7167    7170       3
    7161    7164   -7200    7203       1    7158    7155    7203    7200       1
    7158    7161    7164    7167       1    7158    7161   -7164    7200       1
    7155    7158    7161    7164       1    7155    7203   -7200    7164       1
    7152    7149    7155    7158       6    7152    7149    7155    7203       6
    7149    7155    7158    7161       1    7149    7155    7203    7200       1
    7149    7104   -7146    7203       5    7146    7203    7200    7164       1
    7146    7203   -7155    7149       1    7146    7203    7155    7158       1
    7146    7104    7149    7152       5    7146    7104   -7149    7155       5
    7143    7146    7203    7200       6    7143    7146    7203    7155       6
    7143    7146    7104    7149       5    7107    7101    7104    7146       7
    7107    7101    7104    7149       7    7104    7101    7107    7110       1
    7104    7146    7203    7200       4    7104    7146   -7203    7155       4
    7104    7149    7155    7158       4    7104    7149   -7155    7203       4
    7101    7104    7146    7143       5    7101    7104    7146    7203       5
    7101    7104    7149    7152       5    7101    7104    7149    7155       5
    7098    7095    7092    7110       1    7098    7101    7104    7146       7
    7098    7101    7104    7149       7    7098    7101   -7107    7110       1
    7095    7092    7110    7107       1    7095    7098    7101    7104       1
    7095    7098   -7101    7107       1    7092    7089    7086    7113       3
    7092    7095    7098    7101       1    7092    7110   -7107    7101       1
    7089    7086    7113    7116       1    7089    7092    7095    7098       1
    7089    7092    7110    7107       1    7086    7089    7092    7095       3
    7086    7089    7092    7110       3    7083    7080    7077    7116       1
    7083    7086    7089    7092       3    7083    7086   -7113    7116       1
    7080    7077    7116    7113       1    7080    7083    7086    7089       1
    7080    7083   -7086    7113       1    7077    7080    7083    7086       1
    7077    7116   -7113    7086       1    7074    7077    7080    7083       1
    7074    7077    7116    7113       1    7047    7044    7038    7074       4
    7044    7038    7074    7077       5    7044    7029   -7032    7074       4
    7041    7038    7044    7047       6    7041    7038    7074    7077       5
    7038    7074    7077    7080       7    7038    7074    7077    7116       7
    7035    7032    7029    7044       6    7035    7032    7074    7077       5
    7035    7032    7074    7038       5    7032    7029   -7044    7038       1
    7032    7029    7044    7047       1    7032    7074    7077    7080       7
    7032    7074    7077    7116       7    7032    7074    7038    7041       5
    7032    7074   -7038    7044       5    7029    7032    7074    7077       5
    7029    7032   -7074    7038       5    7029    7044    7038    7041       6
    7029    7044   -7038    7074       4    7026    7023    7020    7047       1
    7026    7029    7032    7035       6    7026    7029    7032    7074       4
    7026    7029    7044    7038       1    7026    7029   -7044    7047       1
    7023    7020    7047    7044       1    7023    7026    7029    7032       1
    7023    7026   -7029    7044       1    7020    7017    7014    7050       3
    7020    7023    7026    7029       1    7020    7047    7044    7038       1
    7020    7047   -7044    7029       1    7017    7014    7050    7053       1
    7017    7020    7023    7026       1    7017    7020    7047    7044       1
    7014    7017    7020    7023       3    7014    7017    7020    7047       3
    7011    7008    7005    7053       1    7011    7014    7017    7020       3
    7011    7014   -7050    7053       1    7008    7005    7053    7050       1
    7008    7011    7014    7017       1    7008    7011   -7014    7050       1
    7005    7008    7011    7014       1    7005    7053   -7050    7014       1
    7002    6999    7005    7008       6    7002    6999    7005    7053       6
    6999    7005    7008    7011       1    6999    7005    7053    7050       1
    6999    6903   -6996    7053       5    6996    7053    7050    7014       1
    6996    7053   -7005    6999       1    6996    7053    7005    7008       1
    6996    6903    6999    7002       5    6996    6903   -6999    7005       5
    6993    6996    7053    7050       6    6993    6996    7053    7005       6
    6993    6996    6903    6999       5    6939    6936    6942    6945       1
    6939    6936    6942    6948       1    6933    6930    6927    6948       1
    6933    6936    6942    6945       1    6933    6936   -6942    6948       1
    6930    6927    6948    6942       1    6930    6933    6936    6939       1
    6930    6933   -6936    6942       1    6927    6930    6933    6936       1
    6927    6948   -6942    6936       1    6927    6948    6942    6945       1
    6924    6927    6930    6933       1    6924    6927    6948    6942       1
    6921    6924    6927    6930      12    6921    6924    6927    6948      12
    6918    6912    6909    6951       4    6918    6921    6924    6927      13
    6915    6912    6909    6951       6    6915    6912    6918    6921       5
    6912    6918    6921    6924      15    6912    6918   -6921    6924      16
    6912    6918   -6921    6924      17    6909    6912    6918    6921       5
    6906    6900    6903    6996       7    6906    6900    6903    6999       7
    6906    6909    6912    6915       6    6906    6909    6912    6918       4
    6903    6900    6906    6909       1    6903    6996    7053    7050       4
    6903    6996   -7053    7005       4    6903    6999    7005    7008       4
    6903    6999   -7005    7053       4    6900    6897    6894    6951       1
    6900    6903    6996    6993       5    6900    6903    6996    7053       5
    6900    6903    6999    7002       5    6900    6903    6999    7005       5
    6900    6906    6909    6912       1    6900    6906   -6909    6951       1
    6897    6894    6951    6909       1    6897    6900    6903    6996       7
    6897    6900    6903    6999       7    6897    6900   -6906    6909       1
    6894    6897    6900    6903       1    6894    6897    6900    6906       1
    6894    6951   -6909    6906       1    6894    6951    6909    6912       1
    6891    6894    6897    6900       1    6891    6894    6951    6909       1
    6864    6861    6855    6891       4    6861    6855    6891    6894       5
    6861    6846   -6849    6891       4    6858    6855    6861    6864       6
    6858    6855    6891    6894       5    6855    6891    6894    6897       7
    6855    6891    6894    6951       7    6852    6849    6846    6861       6
    6852    6849    6891    6894       5    6852    6849    6891    6855       5
    6849    6846   -6861    6855       1    6849    6846    6861    6864       1
    6849    6891    6894    6897       7    6849    6891    6894    6951       7
    6849    6891    6855    6858       5    6849    6891   -6855    6861       5
    6846    6849    6891    6894       5    6846    6849   -6891    6855       5
    6846    6861    6855    6858       6    6846    6861   -6855    6891       4
    6843    6840    6837    6864       1    6843    6846    6849    6852       6
    6843    6846    6849    6891       4    6843    6846    6861    6855       1
    6843    6846   -6861    6864       1    6840    6837    6864    6861       1
    6840    6843    6846    6849       1    6840    6843   -6846    6861       1
    6837    6834    6831    6867       3    6837    6840    6843    6846       1
    6837    6864    6861    6855       1    6837    6864   -6861    6846       1
    6834    6831    6867    6870       1    6834    6837    6840    6843       1
    6834    6837    6864    6861       1    6831    6834    6837    6840       3
    6831    6834    6837    6864       3    6828    6825    6822    6870       1
    6828    6831    6834    6837       3    6828    6831   -6867    6870       1
    6825    6822    6870    6867       1    6825    6828    6831    6834       1
    6825    6828   -6831    6867       1    6822    6825    6828    6831       1
    6822    6870   -6867    6831       1    6819    6816    6822    6825       6
    6819    6816    6822    6870       6    6816    6822    6825    6828       1
    6816    6822    6870    6867       1    6816    6765   -6813    6870       5
    6813    6870    6867    6831       1    6813    6870   -6822    6816       1
    6813    6870    6822    6825       1    6813    6765    6816    6819       5
    6813    6765   -6816    6822       5    6810    6813    6870    6867       6
    6810    6813    6870    6822       6    6810    6813    6765    6816       5
    6768    6762    6765    6813       7    6768    6762    6765    6816       7
    6765    6762    6768    6771       1    6765    6813    6870    6867       4
    6765    6813   -6870    6822       4    6765    6816    6822    6825       4
    6765    6816   -6822    6870       4    6762    6765    6813    6810       5
    6762    6765    6813    6870       5    6762    6765    6816    6819       5
    6762    6765    6816    6822       5    6759    6756    6753    6771       1
    6759    6762    6765    6813       7    6759    6762    6765    6816       7
    6759    6762   -6768    6771       1    6756    6753    6771    6768       1
    6756    6759    6762    6765       1    6756    6759   -6762    6768       1
    6753    6750    6747    6774       3    6753    6756    6759    6762       1
    6753    6771   -6768    6762       1    6750    6747    6774    6777       1
    6750    6753    6756    6759       1    6750    6753    6771    6768       1
    6747    6750    6753    6756       3    6747    6750    6753    6771       3
    6744    6741    6738    6777       1    6744    6747    6750    6753       3
    6744    6747   -6774    6777       1    6741    6738    6777    6774       1
    6741    6744    6747    6750       1    6741    6744   -6747    6774       1
    6738    6741    6744    6747       1    6738    6777   -6774    6747       1
    6735    6738    6741    6744       1    6735    6738    6777    6774       1
    1296    1305   -1299   -1302      18    1293    1308   -1290   -1287      18
    1281    1311   -1284   -1287      18    1278    1314   -1275   -1272      18
    1230    1236   -1272   -1275      18    1194    1203   -1251   -1248      18
    1236    1227   -1242   -1245      18    1242    1272   -1236   -1239      19
    1227    1272   -1230   -1233      19    1230    1224   -1227   -1242      18
    1221    1245   -1218   -1215      18    1209    1248   -1212   -1215      18
    1197    1206   -1203   -1251      18    1203    1101   -1197   -1200      19
    1251    1101   -1194   -1191      19    1134    1146   -1140   -1143      18
    1131    1140   -1134   -1137      18    1128    1146   -1125   -1122      18
    1107    1116   -1110   -1113      19    1110    1104   -1107   -1149      18
    1194    1197   -1101   -1098      18    1095    1104   -1098   -1101      18
    1095    1149   -1092   -1089      18    1047    1053   -1089   -1092      18
    1011    1020   -1068   -1065      18    1053    1044   -1059   -1062      18
    1059    1089   -1053   -1056      19    1044    1089   -1047   -1050      19
    1047    1041   -1044   -1059      18    1038    1062   -1035   -1032      18
    1026    1065   -1029   -1032      18    1014    1023   -1020   -1068      18
    1020     969   -1014   -1017      19    1068     969   -1011   -1008      19
    1011    1014    -969    -966      18     963     972    -966    -969      18
     960     975    -957    -954      18     948     978    -951    -954      18
     945     981    -942    -939      18     897     903    -939    -942      18
     861     870    -918    -915      18     903     894    -909    -912      18
     909     939    -903    -906      19     894     939    -897    -900      19
     897     891    -894    -909      18     888     912    -885    -882      18
     876     915    -879    -882      18     864     873    -870    -918      18
     870     819    -864    -867      19     918     819    -861    -858      19
     861     864    -819    -816      18     813     822    -816    -819      18
     810     825    -807    -804      18     798     828    -801    -804      18
     795     831    -792    -789      18     747     753    -789    -792      18
     711     720    -768    -765      18     753     744    -759    -762      18
     759     789    -753    -756      19     744     789    -747    -750      19
     747     741    -744    -759      18     738     762    -735    -732      18
     726     765    -729    -732      18     714     723    -720    -768      18
     720     669    -714    -717      19     768     669    -711    -708      19
     711     714    -669    -666      18     663     672    -666    -669      18
     660     675    -657    -654      18     648     678    -651    -654      18
     645     681    -642    -639      18     597     603    -639    -642      18
     561     570    -618    -615      18     603     594    -609    -612      18
     609     639    -603    -606      19     594     639    -597    -600      19
     597     591    -594    -609      18     588     612    -585    -582      18
     576     615    -579    -582      18     564     573    -570    -618      18
     570     519    -564    -567      19     618     519    -561    -558      19
     561     564    -519    -516      18     513     522    -516    -519      18
     510     525    -507    -504      18     498     528    -501    -504      18
     495     531    -492    -489      18     447     453    -489    -492      18
     411     420    -468    -465      18     453     444    -459    -462      18
     459     489    -453    -456      19     444     489    -447    -450      19
     447     441    -444    -459      18     438     462    -435    -432      18
     426     465    -429    -432      18     414     423    -420    -468      18
     420     369    -414    -417      19     468     369    -411    -408      19
     411     414    -369    -366      18     363     372    -366    -369      18
     360     375    -357    -354      18     348     378    -351    -354      18
     345     381    -342    -339      18     297     303    -339    -342      18
     261     270    -318    -315      18     303     294    -309    -312      18
     309     339    -303    -306      19     294     339    -297    -300      19
     297     291    -294    -309      18     288     312    -285    -282      18
     276     315    -279    -282      18     264     273    -270    -318      18
     270     168    -264    -267      19     318     168    -261    -258      19
     201     213    -207    -210      18     198     207    -201    -204      18
     189     195    -192    -213      18     174     183    -177    -180      19
     177     171    -174    -216      18     261     264    -168    -165      18
     162     171    -165    -168      18     162     216    -159    -156      18
     114     120    -156    -159      18      78      87    -135    -132      18
     120     111    -126    -129      18     126     156    -120    -123      19
     111     156    -114    -117      19     114     108    -111    -126      18
     105     129    -102     -99      18      93     132     -96     -99      18
      81      90     -87    -135      18      87      30     -81     -84      19
     135      30     -78     -75      19      78      81     -30     -27      18
      24      33     -27     -30      18      21      36     -18     -15      18
       9      39     -12     -15      18       0       3     -42      -6      18
    2643    2652   -2646   -2649      18    2640    2655   -2637   -2634      18
    2628    2658   -2631   -2634      18    2625    2661   -2622   -2619      18
    2577    2583   -2619   -2622      18    2541    2550   -2598   -2595      18
    2583    2574   -2589   -2592      18    2589    2619   -2583   -2586      19
    2574    2619   -2577   -2580      19    2577    2571   -2574   -2589      18
    2568    2592   -2565   -2562      18    2556    2595   -2559   -2562      18
    2544    2553   -2550   -2598      18    2550    2448   -2544   -2547      19
    2598    2448   -2541   -2538      19    2481    2493   -2487   -2490      18
    2478    2487   -2481   -2484      18    2469    2475   -2472   -2493      18
    2454    2463   -2457   -2460      19    2457    2451   -2454   -2496      18
    2541    2544   -2448   -2445      18    2442    2451   -2445   -2448      18
    2442    2496   -2439   -2436      18    2394    2400   -2436   -2439      18
    2358    2367   -2415   -2412      18    2400    2391   -2406   -2409      18
    2406    2436   -2400   -2403      19    2391    2436   -2394   -2397      19
    2394    2388   -2391   -2406      18    2385    2409   -2382   -2379      18
    2373    2412   -2376   -2379      18    2361    2370   -2367   -2415      18
    2367    2316   -2361   -2364      19    2415    2316   -2358   -2355      19
    2358    2361   -2316   -2313      18    2310    2319   -2313   -2316      18
    2307    2322   -2304   -2301      18    2295    2325   -2298   -2301      18
    2292    2328   -2289   -2286      18    2244    2250   -2286   -2289      18
    2208    2217   -2265   -2262      18    2250    2241   -2256   -2259      18
    2256    2286   -2250   -2253      19    2241    2286   -2244   -2247      19
    2244    2238   -2241   -2256      18    2235    2259   -2232   -2229      18
    2223    2262   -2226   -2229      18    2211    2220   -2217   -2265      18
    2217    2166   -2211   -2214      19    2265    2166   -2208   -2205      19
    2208    2211   -2166   -2163      18    2160    2169   -2163   -2166      18
    2157    2172   -2154   -2151      18    2145    2175   -2148   -2151      18
    2142    2178   -2139   -2136      18    2094    2100   -2136   -2139      18
    2058    2067   -2115   -2112      18    2100    2091   -2106   -2109      18
    2106    2136   -2100   -2103      19    2091    2136   -2094   -2097      19
    2094    2088   -2091   -2106      18    2085    2109   -2082   -2079      18
    2073    2112   -2076   -2079      18    2061    2070   -2067   -2115      18
    2067    2016   -2061   -2064      19    2115    2016   -2058   -2055      19
    2058    2061   -2016   -2013      18    2010    2019   -2013   -2016      18
    2007    2022   -2004   -2001      18    1995    2025   -1998   -2001      18
    1992    2028   -1989   -1986      18    1944    1950   -1986   -1989      18
    1908    1917   -1965   -1962      18    1950    1941   -1956   -1959      18
    1956    1986   -1950   -1953      19    1941    1986   -1944   -1947      19
    1944    1938   -1941   -1956      18    1935    1959   -1932   -1929      18
    1923    1962   -1926   -1929      18    1911    1920   -1917   -1965      18
    1917    1866   -1911   -1914      19    1965    1866   -1908   -1905      19
    1908    1911   -1866   -1863      18    1860    1869   -1863   -1866      18
    1857    1872   -1854   -1851      18    1845    1875   -1848   -1851      18
    1842    1878   -1839   -1836      18    1794    1800   -1836   -1839      18
    1758    1767   -1815   -1812      18    1800    1791   -1806   -1809      18
    1806    1836   -1800   -1803      19    1791    1836   -1794   -1797      19
    1794    1788   -1791   -1806      18    1785    1809   -1782   -1779      18
    1773    1812   -1776   -1779      18    1761    1770   -1767   -1815      18
    1767    1716   -1761   -1764      19    1815    1716   -1758   -1755      19
    1758    1761   -1716   -1713      18    1710    1719   -1713   -1716      18
    1707    1722   -1704   -1701      18    1695    1725   -1698   -1701      18
    1692    1728   -1689   -1686      18    1644    1650   -1686   -1689      18
    1608    1617   -1665   -1662      18    1650    1641   -1656   -1659      18
    1656    1686   -1650   -1653      19    1641    1686   -1644   -1647      19
    1644    1638   -1641   -1656      18    1635    1659   -1632   -1629      18
    1623    1662   -1626   -1629      18    1611    1620   -1617   -1665      18
    1617    1515   -1611   -1614      19    1665    1515   -1608   -1605      19
    1548    1560   -1554   -1557      18    1545    1554   -1548   -1551      18
    1536    1542   -1539   -1560      18    1521    1530   -1524   -1527      19
    1524    1518   -1521   -1563      18    1608    1611   -1515   -1512      18
    1509    1518   -1512   -1515      18    1509    1563   -1506   -1503      18
    1461    1467   -1503   -1506      18    1425    1434   -1482   -1479      18
    1467    1458   -1473   -1476      18    1473    1503   -1467   -1470      19
    1458    1503   -1461   -1464      19    1461    1455   -1458   -1473      18
    1452    1476   -1449   -1446      18    1440    1479   -1443   -1446      18
    1428    1437   -1434   -1482      18    1434    1377   -1428   -1431      19
    1482    1377   -1425   -1422      19    1425    1428   -1377   -1374      18
    1371    1380   -1374   -1377      18    1368    1383   -1365   -1362      18
    1356    1386   -1359   -1362      18    1353    1389   -1350   -1347      18
    3990    3999   -3993   -3996      18    3987    4002   -3984   -3981      18
    3975    4005   -3978   -3981      18    3972    4008   -3969   -3966      18
    3924    3930   -3966   -3969      18    3888    3897   -3945   -3942      18
    3930    3921   -3936   -3939      18    3936    3966   -3930   -3933      19
    3921    3966   -3924   -3927      19    3924    3918   -3921   -3936      18
    3915    3939   -3912   -3909      18    3903    3942   -3906   -3909      18
    3891    3900   -3897   -3945      18    3897    3795   -3891   -3894      19
    3945    3795   -3888   -3885      19    3828    3840   -3834   -3837      18
    3825    3834   -3828   -3831      18    3816    3822   -3819   -3840      18
    3801    3810   -3804   -3807      19    3804    3798   -3801   -3843      18
    3888    3891   -3795   -3792      18    3789    3798   -3792   -3795      18
    3789    3843   -3786   -3783      18    3741    3747   -3783   -3786      18
    3705    3714   -3762   -3759      18    3747    3738   -3753   -3756      18
    3753    3783   -3747   -3750      19    3738    3783   -3741   -3744      19
    3741    3735   -3738   -3753      18    3732    3756   -3729   -3726      18
    3720    3759   -3723   -3726      18    3708    3717   -3714   -3762      18
    3714    3663   -3708   -3711      19    3762    3663   -3705   -3702      19
    3705    3708   -3663   -3660      18    3657    3666   -3660   -3663      18
    3654    3669   -3651   -3648      18    3642    3672   -3645   -3648      18
    3639    3675   -3636   -3633      18    3591    3597   -3633   -3636      18
    3555    3564   -3612   -3609      18    3597    3588   -3603   -3606      18
    3603    3633   -3597   -3600      19    3588    3633   -3591   -3594      19
    3591    3585   -3588   -3603      18    3582    3606   -3579   -3576      18
    3570    3609   -3573   -3576      18    3558    3567   -3564   -3612      18
    3564    3513   -3558   -3561      19    3612    3513   -3555   -3552      19
    3555    3558   -3513   -3510      18    3507    3516   -3510   -3513      18
    3504    3519   -3501   -3498      18    3492    3522   -3495   -3498      18
    3489    3525   -3486   -3483      18    3441    3447   -3483   -3486      18
    3405    3414   -3462   -3459      18    3447    3438   -3453   -3456      18
    3453    3483   -3447   -3450      19    3438    3483   -3441   -3444      19
    3441    3435   -3438   -3453      18    3432    3456   -3429   -3426      18
    3420    3459   -3423   -3426      18    3408    3417   -3414   -3462      18
    3414    3363   -3408   -3411      19    3462    3363   -3405   -3402      19
    3405    3408   -3363   -3360      18    3357    3366   -3360   -3363      18
    3354    3369   -3351   -3348      18    3342    3372   -3345   -3348      18
    3339    3375   -3336   -3333      18    3291    3297   -3333   -3336      18
    3255    3264   -3312   -3309      18    3297    3288   -3303   -3306      18
    3303    3333   -3297   -3300      19    3288    3333   -3291   -3294      19
    3291    3285   -3288   -3303      18    3282    3306   -3279   -3276      18
    3270    3309   -3273   -3276      18    3258    3267   -3264   -3312      18
    3264    3213   -3258   -3261      19    3312    3213   -3255   -3252      19
    3255    3258   -3213   -3210      18    3207    3216   -3210   -3213      18
    3204    3219   -3201   -3198      18    3192    3222   -3195   -3198      18
    3189    3225   -3186   -3183      18    3141    3147   -3183   -3186      18
    3105    3114   -3162   -3159      18    3147    3138   -3153   -3156      18
    3153    3183   -3147   -3150      19    3138    3183   -3141   -3144      19
    3141    3135   -3138   -3153      18    3132    3156   -3129   -3126      18
    3120    3159   -3123   -3126      18    3108    3117   -3114   -3162      18
    3114    3063   -3108   -3111      19    3162    3063   -3105   -3102      19
    3105    3108   -3063   -3060      18    3057    3066   -3060   -3063      18
    3054    3069   -3051   -3048      18    3042    3072   -3045   -3048      18
    3039    3075   -3036   -3033      18    2991    2997   -3033   -3036      18
    2955    2964   -3012   -3009      18    2997    2988   -3003   -3006      18
    3003    3033   -2997   -3000      19    2988    3033   -2991   -2994      19
    2991    2985   -2988   -3003      18    2982    3006   -2979   -2976      18
    2970    3009   -2973   -2976      18    2958    2967   -2964   -3012      18
    2964    2862   -2958   -2961      19    3012    2862   -2955   -2952      19
    2895    2907   -2901   -2904      18    2892    2901   -2895   -2898      18
    2883    2889   -2886   -2907      18    2868    2877   -2871   -2874      19
    2871    2865   -2868   -2910      18    2955    2958   -2862   -2859      18
    2856    2865   -2859   -2862      18    2856    2910   -2853   -2850      18
    2808    2814   -2850   -2853      18    2772    2781   -2829   -2826      18
    2814    2805   -2820   -2823      18    2820    2850   -2814   -2817      19
    2805    2850   -2808   -2811      19    2808    2802   -2805   -2820      18
    2799    2823   -2796   -2793      18    2787    2826   -2790   -2793      18
    2775    2784   -2781   -2829      18    2781    2724   -2775   -2778      19
    2829    2724   -2772   -2769      19    2772    2775   -2724   -2721      18
    2718    2727   -2721   -2724      18    2715    2730   -2712   -2709      18
    2703    2733   -2706   -2709      18    2700    2736   -2697   -2694      18
    5337    5346   -5340   -5343      18    5334    5349   -5331   -5328      18
    5322    5352   -5325   -5328      18    5319    5355   -5316   -5313      18
    5271    5277   -5313   -5316      18    5235    5244   -5292   -5289      18
    5277    5268   -5283   -5286      18    5283    5313   -5277   -5280      19
    5268    5313   -5271   -5274      19    5271    5265   -5268   -5283      18
    5262    5286   -5259   -5256      18    5250    5289   -5253   -5256      18
    5238    5247   -5244   -5292      18    5244    5142   -5238   -5241      19
    5292    5142   -5235   -5232      19    5175    5187   -5181   -5184      18
    5172    5181   -5175   -5178      18    5163    5169   -5166   -5187      18
    5148    5157   -5151   -5154      19    5151    5145   -5148   -5190      18
    5235    5238   -5142   -5139      18    5136    5145   -5139   -5142      18
    5136    5190   -5133   -5130      18    5088    5094   -5130   -5133      18
    5052    5061   -5109   -5106      18    5094    5085   -5100   -5103      18
    5100    5130   -5094   -5097      19    5085    5130   -5088   -5091      19
    5088    5082   -5085   -5100      18    5079    5103   -5076   -5073      18
    5067    5106   -5070   -5073      18    5055    5064   -5061   -5109      18
    5061    5010   -5055   -5058      19    5109    5010   -5052   -5049      19
    5052    5055   -5010   -5007      18    5004    5013   -5007   -5010      18
    5001    5016   -4998   -4995      18    4989    5019   -4992   -4995      18
    4986    5022   -4983   -4980      18    4938    4944   -4980   -4983      18
    4902    4911   -4959   -4956      18    4944    4935   -4950   -4953      18
    4950    4980   -4944   -4947      19    4935    4980   -4938   -4941      19
    4938    4932   -4935   -4950      18    4929    4953   -4926   -4923      18
    4917    4956   -4920   -4923      18    4905    4914   -4911   -4959      18
    4911    4860   -4905   -4908      19    4959    4860   -4902   -4899      19
    4902    4905   -4860   -4857      18    4854    4863   -4857   -4860      18
    4851    4866   -4848   -4845      18    4839    4869   -4842   -4845      18
    4836    4872   -4833   -4830      18    4788    4794   -4830   -4833      18
    4752    4761   -4809   -4806      18    4794    4785   -4800   -4803      18
    4800    4830   -4794   -4797      19    4785    4830   -4788   -4791      19
    4788    4782   -4785   -4800      18    4779    4803   -4776   -4773      18
    4767    4806   -4770   -4773      18    4755    4764   -4761   -4809      18
    4761    4710   -4755   -4758      19    4809    4710   -4752   -4749      19
    4752    4755   -4710   -4707      18    4704    4713   -4707   -4710      18
    4701    4716   -4698   -4695      18    4689    4719   -4692   -4695      18
    4686    4722   -4683   -4680      18    4638    4644   -4680   -4683      18
    4602    4611   -4659   -4656      18    4644    4635   -4650   -4653      18
    4650    4680   -4644   -4647      19    4635    4680   -4638   -4641      19
    4638    4632   -4635   -4650      18    4629    4653   -4626   -4623      18
    4617    4656   -4620   -4623      18    4605    4614   -4611   -4659      18
    4611    4560   -4605   -4608      19    4659    4560   -4602   -4599      19
    4602    4605   -4560   -4557      18    4554    4563   -4557   -4560      18
    4551    4566   -4548   -4545      18    4539    4569   -4542   -4545      18
    4536    4572   -4533   -4530      18    4488    4494   -4530   -4533      18
    4452    4461   -4509   -4506      18    4494    4485   -4500   -4503      18
    4500    4530   -4494   -4497      19    4485    4530   -4488   -4491      19
    4488    4482   -4485   -4500      18    4479    4503   -4476   -4473      18
    4467    4506   -4470   -4473      18    4455    4464   -4461   -4509      18
    4461    4410   -4455   -4458      19    4509    4410   -4452   -4449      19
    4452    4455   -4410   -4407      18    4404    4413   -4407   -4410      18
    4401    4416   -4398   -4395      18    4389    4419   -4392   -4395      18
    4386    4422   -4383   -4380      18    4338    4344   -4380   -4383      18
    4302    4311   -4359   -4356      18    4344    4335   -4350   -4353      18
    4350    4380   -4344   -4347      19    4335    4380   -4338   -4341      19
    4338    4332   -4335   -4350      18    4329    4353   -4326   -4323      18
    4317    4356   -4320   -4323      18    4305    4314   -4311   -4359      18
    4311    4209   -4305   -4308      19    4359    4209   -4302   -4299      19
    4242    4254   -4248   -4251      18    4239    4248   -4242   -4245      18
    4230    4236   -4233   -4254      18    4215    4224   -4218   -4221      19
    4218    4212   -4215   -4257      18    4302    4305   -4209   -4206      18
    4203    4212   -4206   -4209      18    4203    4257   -4200   -4197      18
    4155    4161   -4197   -4200      18    4119    4128   -4176   -4173      18
    4161    4152   -4167   -4170      18    4167    4197   -4161   -4164      19
    4152    4197   -4155   -4158      19    4155    4149   -4152   -4167      18
    4146    4170   -4143   -4140      18    4134    4173   -4137   -4140      18
    4122    4131   -4128   -4176      18    4128    4071   -4122   -4125      19
    4176    4071   -4119   -4116      19    4119    4122   -4071   -4068      18
    4065    4074   -4068   -4071      18    4062    4077   -4059   -4056      18
    4050    4080   -4053   -4056      18    4047    4083   -4044   -4041      18
    6684    6693   -6687   -6690      18    6681    6696   -6678   -6675      18
    6669    6699   -6672   -6675      18    6666    6702   -6663   -6660      18
    6618    6624   -6660   -6663      18    6582    6591   -6639   -6636      18
    6624    6615   -6630   -6633      18    6630    6660   -6624   -6627      19
    6615    6660   -6618   -6621      19    6618    6612   -6615   -6630      18
    6609    6633   -6606   -6603      18    6597    6636   -6600   -6603      18
    6585    6594   -6591   -6639      18    6591    6489   -6585   -6588      19
    6639    6489   -6582   -6579      19    6522    6534   -6528   -6531      18
    6519    6528   -6522   -6525      18    6510    6516   -6513   -6534      18
    6495    6504   -6498   -6501      19    6498    6492   -6495   -6537      18
    6582    6585   -6489   -6486      18    6483    6492   -6486   -6489      18
    6483    6537   -6480   -6477      18    6435    6441   -6477   -6480      18
    6399    6408   -6456   -6453      18    6441    6432   -6447   -6450      18
    6447    6477   -6441   -6444      19    6432    6477   -6435   -6438      19
    6435    6429   -6432   -6447      18    6426    6450   -6423   -6420      18
    6414    6453   -6417   -6420      18    6402    6411   -6408   -6456      18
    6408    6357   -6402   -6405      19    6456    6357   -6399   -6396      19
    6399    6402   -6357   -6354      18    6351    6360   -6354   -6357      18
    6348    6363   -6345   -6342      18    6336    6366   -6339   -6342      18
    6333    6369   -6330   -6327      18    6285    6291   -6327   -6330      18
    6249    6258   -6306   -6303      18    6291    6282   -6297   -6300      18
    6297    6327   -6291   -6294      19    6282    6327   -6285   -6288      19
    6285    6279   -6282   -6297      18    6276    6300   -6273   -6270      18
    6264    6303   -6267   -6270      18    6252    6261   -6258   -6306      18
    6258    6207   -6252   -6255      19    6306    6207   -6249   -6246      19
    6249    6252   -6207   -6204      18    6201    6210   -6204   -6207      18
    6198    6213   -6195   -6192      18    6186    6216   -6189   -6192      18
    6183    6219   -6180   -6177      18    6135    6141   -6177   -6180      18
    6099    6108   -6156   -6153      18    6141    6132   -6147   -6150      18
    6147    6177   -6141   -6144      19    6132    6177   -6135   -6138      19
    6135    6129   -6132   -6147      18    6126    6150   -6123   -6120      18
    6114    6153   -6117   -6120      18    6102    6111   -6108   -6156      18
    6108    6057   -6102   -6105      19    6156    6057   -6099   -6096      19
    6099    6102   -6057   -6054      18    6051    6060   -6054   -6057      18
    6048    6063   -6045   -6042      18    6036    6066   -6039   -6042      18
    6033    6069   -6030   -6027      18    5985    5991   -6027   -6030      18
    5949    5958   -6006   -6003      18    5991    5982   -5997   -6000      18
    5997    6027   -5991   -5994      19    5982    6027   -5985   -5988      19
    5985    5979   -5982   -5997      18    5976    6000   -5973   -5970      18
    5964    6003   -5967   -5970      18    5952    5961   -5958   -6006      18
    5958    5907   -5952   -5955      19    6006    5907   -5949   -5946      19
    5949    5952   -5907   -5904      18    5901    5910   -5904   -5907      18
    5898    5913   -5895   -5892      18    5886    5916   -5889   -5892      18
    5883    5919   -5880   -5877      18    5835    5841   -5877   -5880      18
    5799    5808   -5856   -5853      18    5841    5832   -5847   -5850      18
    5847    5877   -5841   -5844      19    5832    5877   -5835   -5838      19
    5835    5829   -5832   -5847      18    5826    5850   -5823   -5820      18
    5814    5853   -5817   -5820      18    5802    5811   -5808   -5856      18
    5808    5757   -5802   -5805      19    5856    5757   -5799   -5796      19
    5799    5802   -5757   -5754      18    5751    5760   -5754   -5757      18
    5748    5763   -5745   -5742      18    5736    5766   -5739   -5742      18
    5733    5769   -5730   -5727      18    5685    5691   -5727   -5730      18
    5649    5658   -5706   -5703      18    5691    5682   -5697   -5700      18
    5697    5727   -5691   -5694      19    5682    5727   -5685   -5688      19
    5685    5679   -5682   -5697      18    5676    5700   -5673   -5670      18
    5664    5703   -5667   -5670      18    5652    5661   -5658   -5706      18
    5658    5556   -5652   -5655      19    5706    5556   -5649   -5646      19
    5589    5601   -5595   -5598      18    5586    5595   -5589   -5592      18
    5577    5583   -5580   -5601      18    5562    5571   -5565   -5568      19
    5565    5559   -5562   -5604      18    5649    5652   -5556   -5553      18
    5550    5559   -5553   -5556      18    5550    5604   -5547   -5544      18
    5502    5508   -5544   -5547      18    5466    5475   -5523   -5520      18
    5508    5499   -5514   -5517      18    5514    5544   -5508   -5511      19
    5499    5544   -5502   -5505      19    5502    5496   -5499   -5514      18
    5493    5517   -5490   -5487      18    5481    5520   -5484   -5487      18
    5469    5478   -5475   -5523      18    5475    5418   -5469   -5472      19
    5523    5418   -5466   -5463      19    5466    5469   -5418   -5415      18
    5412    5421   -5415   -5418      18    5409    5424   -5406   -5403      18
    5397    5427   -5400   -5403      18    5394    5430   -5391   -5388      18
    8031    8040   -8034   -8037      18    8028    8043   -8025   -8022      18
    8016    8046   -8019   -8022      18    8013    8049   -8010   -8007      18
    7965    7971   -8007   -8010      18    7929    7938   -7986   -7983      18
    7971    7962   -7977   -7980      18    7977    8007   -7971   -7974      19
    7962    8007   -7965   -7968      19    7965    7959   -7962   -7977      18
    7956    7980   -7953   -7950      18    7944    7983   -7947   -7950      18
    7932    7941   -7938   -7986      18    7938    7836   -7932   -7935      19
    7986    7836   -7929   -7926      19    7869    7881   -7875   -7878      18
    7866    7875   -7869   -7872      18    7857    7863   -7860   -7881      18
    7842    7851   -7845   -7848      19    7845    7839   -7842   -7884      18
    7929    7932   -7836   -7833      18    7830    7839   -7833   -7836      18
    7830    7884   -7827   -7824      18    7782    7788   -7824   -7827      18
    7746    7755   -7803   -7800      18    7788    7779   -7794   -7797      18
    7794    7824   -7788   -7791      19    7779    7824   -7782   -7785      19
    7782    7776   -7779   -7794      18    7773    7797   -7770   -7767      18
    7761    7800   -7764   -7767      18    7749    7758   -7755   -7803      18
    7755    7704   -7749   -7752      19    7803    7704   -7746   -7743      19
    7746    7749   -7704   -7701      18    7698    7707   -7701   -7704      18
    7695    7710   -7692   -7689      18    7683    7713   -7686   -7689      18
    7680    7716   -7677   -7674      18    7632    7638   -7674   -7677      18
    7596    7605   -7653   -7650      18    7638    7629   -7644   -7647      18
    7644    7674   -7638   -7641      19    7629    7674   -7632   -7635      19
    7632    7626   -7629   -7644      18    7623    7647   -7620   -7617      18
    7611    7650   -7614   -7617      18    7599    7608   -7605   -7653      18
    7605    7554   -7599   -7602      19    7653    7554   -7596   -7593      19
    7596    7599   -7554   -7551      18    7548    7557   -7551   -7554      18
    7545    7560   -7542   -7539      18    7533    7563   -7536   -7539      18
    7530    7566   -7527   -7524      18    7482    7488   -7524   -7527      18
    7446    7455   -7503   -7500      18    7488    7479   -7494   -7497      18
    7494    7524   -7488   -7491      19    7479    7524   -7482   -7485      19
    7482    7476   -7479   -7494      18    7473    7497   -7470   -7467      18
    7461    7500   -7464   -7467      18    7449    7458   -7455   -7503      18
    7455    7404   -7449   -7452      19    7503    7404   -7446   -7443      19
    7446    7449   -7404   -7401      18    7398    7407   -7401   -7404      18
    7395    7410   -7392   -7389      18    7383    7413   -7386   -7389      18
    7380    7416   -7377   -7374      18    7332    7338   -7374   -7377      18
    7296    7305   -7353   -7350      18    7338    7329   -7344   -7347      18
    7344    7374   -7338   -7341      19    7329    7374   -7332   -7335      19
    7332    7326   -7329   -7344      18    7323    7347   -7320   -7317      18
    7311    7350   -7314   -7317      18    7299    7308   -7305   -7353      18
    7305    7254   -7299   -7302      19    7353    7254   -7296   -7293      19
    7296    7299   -7254   -7251      18    7248    7257   -7251   -7254      18
    7245    7260   -7242   -7239      18    7233    7263   -7236   -7239      18
    7230    7266   -7227   -7224      18    7182    7188   -7224   -7227      18
    7146    7155   -7203   -7200      18    7188    7179   -7194   -7197      18
    7194    7224   -7188   -7191      19    7179    7224   -7182   -7185      19
    7182    7176   -7179   -7194      18    7173    7197   -7170   -7167      18
    7161    7200   -7164   -7167      18    7149    7158   -7155   -7203      18
    7155    7104   -7149   -7152      19    7203    7104   -7146   -7143      19
    7146    7149   -7104   -7101      18    7098    7107   -7101   -7104      18
    7095    7110   -7092   -7089      18    7083    7113   -7086   -7089      18
    7080    7116   -7077   -7074      18    7032    7038   -7074   -7077      18
    6996    7005   -7053   -7050      18    7038    7029   -7044   -7047      18
    7044    7074   -7038   -7041      19    7029    7074   -7032   -7035      19
    7032    7026   -7029   -7044      18    7023    7047   -7020   -7017      18
    7011    7050   -7014   -7017      18    6999    7008   -7005   -7053      18
    7005    6903   -6999   -7002      19    7053    6903   -6996   -6993      19
    6936    6948   -6942   -6945      18    6933    6942   -6936   -6939      18
    6924    6930   -6927   -6948      18    6909    6918   -6912   -6915      19
    6912    6906   -6909   -6951      18    6996    6999   -6903   -6900      18
    6897    6906   -6900   -6903      18    6897    6951   -6894   -6891      18
    6849    6855   -6891   -6894      18    6813    6822   -6870   -6867      18
    6855    6846   -6861   -6864      18    6861    6891   -6855   -6858      19
    6846    6891   -6849   -6852      19    6849    6843   -6846   -6861      18
    6840    6864   -6837   -6834      18    6828    6867   -6831   -6834      18
    6816    6825   -6822   -6870      18    6822    6765   -6816   -6819      19
    6870    6765   -6813   -6810      19    6813    6816   -6765   -6762      18
    6759    6768   -6762   -6765      18    6756    6771   -6753   -6750      18
    6744    6774   -6747   -6750      18    6741    6777   -6738   -6735      18
%FLAG EXCLUDED_ATOMS_LIST                                                       
%FORMAT(10I8)                                                                   
       2       3       4      14      15      16      17      18      25       3
       4       5      14      15      16      17      18      19      24      25
       4       5       6      14      15      16      17      18      19      25
       5       6       7      14      15      18      19      24       6       7
       8      13      14      15      18      19      24      25       7       8
       9      12      13      14      15      19      20      23      24       8
       9      10      12      13      14      20      21      22      23       9
      10      11      12      13      20      21      23      10      11      12
      13      20      21      22      27      28      11      12      13      20
      21      22      23      26      27      28      29      30      46      12
      13      21      22      26      27      28      29      30      31      45
      46      13      21      22      23      27      28      20      22      23
      15      19      24      25      16      17      18      24      25      17
       0      19       0      21       0      23       0      25       0      27
      28      30      45      46      28      29      30      31      33      45
      46      52      29      30      31      32      45      46      47      30
      31      46      31      32      33      45      46      47      48      52
      32      33      34      45      46      47      48      33      34      35
      45      46      47      48      52      34      35      36      44      45
      46      47      48      52      35      36      37      43      44      45
      46      48      49      51      52      36      37      38      41      43
      44      45      49      50      51      37      38      39      43      44
      49      50      51      38      39      40      41      43      44      49
      50      53      39      40      41      42      43      44      49      50
      51      53      54      40      41      42      43      44      50      53
      54      55      73      41      43      53      54      42      43      44
      51      53      54      55      73      43      44      53      54      44
      50      51      53      54      49      51      53      46      48      52
      47      52      48       0      50       0       0       0      54      55
      56      59      73      74      86      55      56      57      58      59
      60      73      74      86      56      57      58      59      73      74
      75      86      88      89      57      58      59      60      73      74
      75      87      88      89      90      91     107      58      59      74
      75      87      88      89      90      91      92     106     107      59
      60      61      62      73      74      75      86      88      89      60
      61      62      63      73      75      76      86      61      62      63
      64      73      75      76      77      78      86      62      63      73
      76      63      64      65      73      76      77      78      79      80
      64      65      66      72      76      77      78      79      80      65
      66      67      70      72      76      77      78      79      80      81
      85      66      67      68      70      71      72      77      78      79
      80      81      82      85      67      68      69      70      72      79
      80      81      82      85      68      69      70      71      72      81
      82      83      69      70      71      72      81      82      83      84
      85      70      71      72      82      83      71      72      82      83
      84      85      72      84      85      79      80      81      84      85
      74      75      86       0       0      77      78      78      79      80
      79      80      80       0      82       0       0       0       0       0
      88      89      91     106     107      89      90      91      92      94
     106     107     113      90      91      92      93     106     107     108
      91      92     107      92      93      94     106     107     108     109
     113      93      94      95     106     107     108     109      94      95
      96     106     107     108     109     113      95      96      97     105
     106     107     108     109     113      96      97      98     104     105
     106     107     109     110     112     113      97      98      99     102
     104     105     106     110     111     112      98      99     100     104
     105     110     111     112      99     100     101     102     104     105
     110     111     114     100     101     102     103     104     105     110
     111     112     114     115     101     102     103     104     105     111
     114     115     116     128     102     104     114     115     103     104
     105     112     114     115     116     128     104     105     114     115
     105     111     112     114     115     110     112     114     107     109
     113     108     113     109       0     111       0       0       0     115
     116     117     127     128     129     136     116     117     118     127
     128     129     130     135     136     117     118     119     127     128
     129     130     136     118     119     120     127     128     129     130
     135     119     120     121     126     127     128     129     130     135
     136     120     121     122     125     126     127     128     130     131
     134     135     121     122     123     125     126     127     131     132
     133     134     122     123     124     125     126     131     132     134
     123     124     125     126     131     132     133     138     139     124
     125     126     131     132     133     134     137     138     139     140
     141     157     125     126     132     133     137     138     139     140
     141     142     156     157     126     132     133     134     138     139
     131     133     134     128     130     135     136     129     135     136
     130       0     132       0     134       0     136       0     138     139
     141     156     157     139     140     141     142     144     156     157
     163     140     141     142     143     156     157     158     141     142
     157     142     143     144     156     157     158     159     163     143
     144     145     156     157     158     159     144     145     146     156
     157     158     159     163     145     146     147     155     156     157
     158     159     163     146     147     148     154     155     156     157
     159     160     162     163     147     148     149     152     154     155
     156     160     161     162     148     149     150     154     155     160
     161     162     149     150     151     152     154     155     160     161
     164     150     151     152     153     154     155     160     161     162
     164     165     151     152     153     154     155     161     164     165
     166     178     152     154     164     165     153     154     155     162
     164     165     166     178     154     155     164     165     155     161
     162     164     165     160     162     164     157     159     163     158
     163     159       0     161       0       0       0     165     166     167
     177     178     179     186     166     167     168     177     178     179
     180     185     186     167     168     169     177     178     179     180
     186     168     169     170     177     178     179     180     185     169
     170     171     176     177     178     179     180     185     186     170
     171     172     175     176     177     178     180     181     184     185
     171     172     173     175     176     177     181     182     183     184
     172     173     174     175     176     181     182     184     173     174
     175     176     181     182     183     188     189     174     175     176
     181     182     183     184     187     188     189     190     191     207
     175     176     182     183     187     188     189     190     191     192
     206     207     176     182     183     184     188     189     181     183
     184     178     180     185     186     179     185     186     180       0
     182       0     184       0     186       0     188     189     191     206
     207     189     190     191     192     194     206     207     213     190
     191     192     193     206     207     208     191     192     207     192
     193     194     206     207     208     209     213     193     194     195
     206     207     208     209     194     195     196     206     207     208
     209     213     195     196     197     205     206     207     208     209
     213     196     197     198     204     205     206     207     209     210
     212     213     197     198     199     202     204     205     206     210
     211     212     198     199     200     204     205     210     211     212
     199     200     201     202     204     205     210     211     214     200
     201     202     203     204     205     210     211     212     214     215
     201     202     203     204     205     211     214     215     216     228
     202     204     214     215     203     204     205     212     214     215
     216     228     204     205     214     215     205     211     212     214
     215     210     212     214     207     209     213     208     213     209
       0     211       0       0       0     215     216     217     227     228
     229     236     216     217     218     227     228     229     230     235
     236     217     218     219     227     228     229     230     236     218
     219     220     227     228     229     230     235     219     220     221
     226     227     228     229     230     235     236     220     221     222
     225     226     227     228     230     231     234     235     221     222
     223     225     226     227     231     232     233     234     222     223
     224     225     226     231     232     234     223     224     225     226
     231     232     233     238     239     224     225     226     231     232
     233     234     237     238     239     240     241     257     225     226
     232     233     237     238     239     240     241     242     256     257
     226     232     233     234     238     239     231     233     234     228
     230     235     236     229     235     236     230       0     232       0
     234       0     236       0     238     239     241     256     257     239
     240     241     242     244     256     257     263     240     241     242
     243     256     257     258     241     242     257     242     243     244
     256     257     258     259     263     243     244     245     256     257
     258     259     244     245     246     256     257     258     259     263
     245     246     247     255     256     257     258     259     263     246
     247     248     254     255     256     257     259     260     262     263
     247     248     249     252     254     255     256     260     261     262
     248     249     250     254     255     260     261     262     249     250
     251     252     254     255     260     261     264     250     251     252
     253     254     255     260     261     262     264     265     251     252
     253     254     255     261     264     265     266     278     252     254
     264     265     253     254     255     262     264     265     266     278
     254     255     264     265     255     261     262     264     265     260
     262     264     257     259     263     258     263     259       0     261
       0       0       0     265     266     267     277     278     279     286
     266     267     268     277     278     279     280     285     286     267
     268     269     277     278     279     280     286     268     269     270
     277     278     279     280     285     269     270     271     276     277
     278     279     280     285     286     270     271     272     275     276
     277     278     280     281     284     285     271     272     273     275
     276     277     281     282     283     284     272     273     274     275
     276     281     282     284     273     274     275     276     281     282
     283     288     289     274     275     276     281     282     283     284
     287     288     289     290     291     307     275     276     282     283
     287     288     289     290     291     292     306     307     276     282
     283     284     288     289     281     283     284     278     280     285
     286     279     285     286     280       0     282       0     284       0
     286       0     288     289     291     306     307     289     290     291
     292     294     306     307     313     290     291     292     293     306
     307     308     291     292     307     292     293     294     306     307
     308     309     313     293     294     295     306     307     308     309
     294     295     296     306     307     308     309     313     295     296
     297     305     306     307     308     309     313     296     297     298
     304     305     306     307     309     310     312     313     297     298
     299     302     304     305     306     310     311     312     298     299
     300     304     305     310     311     312     299     300     301     302
     304     305     310     311     314     300     301     302     303     304
     305     310     311     312     314     315     301     302     303     304
     305     311     314     315     316     328     302     304     314     315
     303     304     305     312     314     315     316     328     304     305
     314     315     305     311     312     314     315     310     312     314
     307     309     313     308     313     309       0     311       0       0
       0     315     316     317     327     328     329     336     316     317
     318     327     328     329     330     335     336     317     318     319
     327     328     329     330     336     318     319     320     327     328
     329     330     335     319     320     321     326     327     328     329
     330     335     336     320     321     322     325     326     327     328
     330     331     334     335     321     322     323     325     326     327
     331     332     333     334     322     323     324     325     326     331
     332     334     323     324     325     326     331     332     333     338
     339     324     325     326     331     332     333     334     337     338
     339     340     341     357     325     326     332     333     337     338
     339     340     341     342     356     357     326     332     333     334
     338     339     331     333     334     328     330     335     336     329
     335     336     330       0     332       0     334       0     336       0
     338     339     341     356     357     339     340     341     342     344
     356     357     363     340     341     342     343     356     357     358
     341     342     357     342     343     344     356     357     358     359
     363     343     344     345     356     357     358     359     344     345
     346     356     357     358     359     363     345     346     347     355
     356     357     358     359     363     346     347     348     354     355
     356     357     359     360     362     363     347     348     349     352
     354     355     356     360     361     362     348     349     350     354
     355     360     361     362     349     350     351     352     354     355
     360     361     364     350     351     352     353     354     355     360
     361     362     364     365     351     352     353     354     355     361
     364     365     366     384     352     354     364     365     353     354
     355     362     364     365     366     384     354     355     364     365
     355     361     362     364     365     360     362     364     357     359
     363     358     363     359       0     361       0       0       0     365
     366     367     370     384     385     397     366     367     368     369
     370     371     384     385     397     367     368     369     370     384
     385     386     397     399     400     368     369     370     371     384
     385     386     398     399     400     401     402     418     369     370
     385     386     398     399     400     401     402     403     417     418
     370     371     372     373     384     385     386     397     399     400
     371     372     373     374     384     386     387     397     372     373
     374     375     384     386     387     388     389     397     373     374
     384     387     374     375     376     384     387     388     389     390
     391     375     376     377     383     387     388     389     390     391
     376     377     378     381     383     387     388     389     390     391
     392     396     377     378     379     381     382     383     388     389
     390     391     392     393     396     378     379     380     381     383
     390     391     392     393     396     379     380     381     382     383
     392     393     394     380     381     382     383     392     393     394
     395     396     381     382     383     393     394     382     383     393
     394     395     396     383     395     396     390     391     392     395
     396     385     386     397       0       0     388     389     389     390
     391     390     391     391       0     393       0       0       0       0
       0     399     400     402     417     418     400     401     402     403
     405     417     418     424     401     402     403     404     417     418
     419     402     403     418     403     404     405     417     418     419
     420     424     404     405     406     417     418     419     420     405
     406     407     417     418     419     420     424     406     407     408
     416     417     418     419     420     424     407     408     409     415
     416     417     418     420     421     423     424     408     409     410
     413     415     416     417     421     422     423     409     410     411
     415     416     421     422     423     410     411     412     413     415
     416     421     422     425     411     412     413     414     415     416
     421     422     423     425     426     412     413     414     415     416
     422     425     426     427     439     413     415     425     426     414
     415     416     423     425     426     427     439     415     416     425
     426     416     422     423     425     426     421     423     425     418
     420     424     419     424     420       0     422       0       0       0
     426     427     428     438     439     440     449     427     428     429
     438     439     440     441     448     449     428     429     430     438
     439     440     441     449     429     430     431     438     439     440
     441     448     430     431     432     437     438     439     440     441
     448     449     431     432     433     436     437     438     439     441
     442     447     448     432     433     434     436     437     438     442
     443     446     447     433     434     435     436     437     442     443
     447     434     435     436     437     442     443     444     445     446
     435     436     437     442     443     444     445     446     447     436
     437     443     444     445     446     437     443     444     445     446
     447     442     446     447     439     441     448     449     440     448
     449     441       0     443       0     445       0     447       0     449
       0     451     452     453     463     464     465     466     467     474
     452     453     454     463     464     465     466     467     468     473
     474     453     454     455     463     464     465     466     467     468
     474     454     455     456     463     464     467     468     473     455
     456     457     462     463     464     467     468     473     474     456
     457     458     461     462     463     464     468     469     472     473
     457     458     459     461     462     463     469     470     471     472
     458     459     460     461     462     469     470     472     459     460
     461     462     469     470     471     476     477     460     461     462
     469     470     471     472     475     476     477     478     479     495
     461     462     470     471     475     476     477     478     479     480
     494     495     462     470     471     472     476     477     469     471
     472     464     468     473     474     465     466     467     473     474
     466       0     468       0     470       0     472       0     474       0
     476     477     479     494     495     477     478     479     480     482
     494     495     501     478     479     480     481     494     495     496
     479     480     495     480     481     482     494     495     496     497
     501     481     482     483     494     495     496     497     482     483
     484     494     495     496     497     501     483     484     485     493
     494     495     496     497     501     484     485     486     492     493
     494     495     497     498     500     501     485     486     487     490
     492     493     494     498     499     500     486     487     488     492
     493     498     499     500     487     488     489     490     492     493
     498     499     502     488     489     490     491     492     493     498
     499     500     502     503     489     490     491     492     493     499
     502     503     504     522     490     492     502     503     491     492
     493     500     502     503     504     522     492     493     502     503
     493     499     500     502     503     498     500     502     495     497
     501     496     501     497       0     499       0       0       0     503
     504     505     508     522     523     535     504     505     506     507
     508     509     522     523     535     505     506     507     508     522
     523     524     535     537     538     506     507     508     509     522
     523     524     536     537     538     539     540     556     507     508
     523     524     536     537     538     539     540     541     555     556
     508     509     510     511     522     523     524     535     537     538
     509     510     511     512     522     524     525     535     510     511
     512     513     522     524     525     526     527     535     511     512
     522     525     512     513     514     522     525     526     527     528
     529     513     514     515     521     525     526     527     528     529
     514     515     516     519     521     525     526     527     528     529
     530     534     515     516     517     519     520     521     526     527
     528     529     530     531     534     516     517     518     519     521
     528     529     530     531     534     517     518     519     520     521
     530     531     532     518     519     520     521     530     531     532
     533     534     519     520     521     531     532     520     521     531
     532     533     534     521     533     534     528     529     530     533
     534     523     524     535       0       0     526     527     527     528
     529     528     529     529       0     531       0       0       0       0
       0     537     538     540     555     556     538     539     540     541
     543     555     556     562     539     540     541     542     555     556
     557     540     541     556     541     542     543     555     556     557
     558     562     542     543     544     555     556     557     558     543
     544     545     555     556     557     558     562     544     545     546
     554     555     556     557     558     562     545     546     547     553
     554     555     556     558     559     561     562     546     547     548
     551     553     554     555     559     560     561     547     548     549
     553     554     559     560     561     548     549     550     551     553
     554     559     560     563     549     550     551     552     553     554
     559     560     561     563     564     550     551     552     553     554
     560     563     564     565     577     551     553     563     564     552
     553     554     561     563     564     565     577     553     554     563
     564     554     560     561     563     564     559     561     563     556
     558     562     557     562     558       0     560       0       0       0
     564     565     566     576     577     578     585     565     566     567
     576     577     578     579     584     585     566     567     568     576
     577     578     579     585     567     568     569     576     577     578
     579     584     568     569     570     575     576     577     578     579
     584     585     569     570     571     574     575     576     577     579
     580     583     584     570     571     572     574     575     576     580
     581     582     583     571     572     573     574     575     580     581
     583     572     573     574     575     580     581     582     587     588
     573     574     575     580     581     582     583     586     587     588
     589     590     606     574     575     581     582     586     587     588
     589     590     591     605     606     575     581     582     583     587
     588     580     582     583     577     579     584     585     578     584
     585     579       0     581       0     583       0     585       0     587
     588     590     605     606     588     589     590     591     593     605
     606     612     589     590     591     592     605     606     607     590
     591     606     591     592     593     605     606     607     608     612
     592     593     594     605     606     607     608     593     594     595
     605     606     607     608     612     594     595     596     604     605
     606     607     608     612     595     596     597     603     604     605
     606     608     609     611     612     596     597     598     601     603
     604     605     609     610     611     597     598     599     603     604
     609     610     611     598     599     600     601     603     604     609
     610     613     599     600     601     602     603     604     609     610
     611     613     614     600     601     602     603     604     610     613
     614     615     627     601     603     613     614     602     603     604
     611     613     614     615     627     603     604     613     614     604
     610     611     613     614     609     611     613     606     608     612
     607     612     608       0     610       0       0       0     614     615
     616     626     627     628     635     615     616     617     626     627
     628     629     634     635     616     617     618     626     627     628
     629     635     617     618     619     626     627     628     629     634
     618     619     620     625     626     627     628     629     634     635
     619     620     621     624     625     626     627     629     630     633
     634     620     621     622     624     625     626     630     631     632
     633     621     622     623     624     625     630     631     633     622
     623     624     625     630     631     632     637     638     623     624
     625     630     631     632     633     636     637     638     639     640
     656     624     625     631     632     636     637     638     639     640
     641     655     656     625     631     632     633     637     638     630
     632     633     627     629     634     635     628     634     635     629
       0     631       0     633       0     635       0     637     638     640
     655     656     638     639     640     641     643     655     656     662
     639     640     641     642     655     656     657     640     641     656
     641     642     643     655     656     657     658     662     642     643
     644     655     656     657     658     643     644     645     655     656
     657     658     662     644     645     646     654     655     656     657
     658     662     645     646     647     653     654     655     656     658
     659     661     662     646     647     648     651     653     654     655
     659     660     661     647     648     649     653     654     659     660
     661     648     649     650     651     653     654     659     660     663
     649     650     651     652     653     654     659     660     661     663
     664     650     651     652     653     654     660     663     664     665
     677     651     653     663     664     652     653     654     661     663
     664     665     677     653     654     663     664     654     660     661
     663     664     659     661     663     656     658     662     657     662
     658       0     660       0       0       0     664     665     666     676
     677     678     685     665     666     667     676     677     678     679
     684     685     666     667     668     676     677     678     679     685
     667     668     669     676     677     678     679     684     668     669
     670     675     676     677     678     679     684     685     669     670
     671     674     675     676     677     679     680     683     684     670
     671     672     674     675     676     680     681     682     683     671
     672     673     674     675     680     681     683     672     673     674
     675     680     681     682     687     688     673     674     675     680
     681     682     683     686     687     688     689     690     706     674
     675     681     682     686     687     688     689     690     691     705
     706     675     681     682     683     687     688     680     682     683
     677     679     684     685     678     684     685     679       0     681
       0     683       0     685       0     687     688     690     705     706
     688     689     690     691     693     705     706     712     689     690
     691     692     705     706     707     690     691     706     691     692
     693     705     706     707     708     712     692     693     694     705
     706     707     708     693     694     695     705     706     707     708
     712     694     695     696     704     705     706     707     708     712
     695     696     697     703     704     705     706     708     709     711
     712     696     697     698     701     703     704     705     709     710
     711     697     698     699     703     704     709     710     711     698
     699     700     701     703     704     709     710     713     699     700
     701     702     703     704     709     710     711     713     714     700
     701     702     703     704     710     713     714     715     727     701
     703     713     714     702     703     704     711     713     714     715
     727     703     704     713     714     704     710     711     713     714
     709     711     713     706     708     712     707     712     708       0
     710       0       0       0     714     715     716     726     727     728
     735     715     716     717     726     727     728     729     734     735
     716     717     718     726     727     728     729     735     717     718
     719     726     727     728     729     734     718     719     720     725
     726     727     728     729     734     735     719     720     721     724
     725     726     727     729     730     733     734     720     721     722
     724     725     726     730     731     732     733     721     722     723
     724     725     730     731     733     722     723     724     725     730
     731     732     737     738     723     724     725     730     731     732
     733     736     737     738     739     740     756     724     725     731
     732     736     737     738     739     740     741     755     756     725
     731     732     733     737     738     730     732     733     727     729
     734     735     728     734     735     729       0     731       0     733
       0     735       0     737     738     740     755     756     738     739
     740     741     743     755     756     762     739     740     741     742
     755     756     757     740     741     756     741     742     743     755
     756     757     758     762     742     743     744     755     756     757
     758     743     744     745     755     756     757     758     762     744
     745     746     754     755     756     757     758     762     745     746
     747     753     754     755     756     758     759     761     762     746
     747     748     751     753     754     755     759     760     761     747
     748     749     753     754     759     760     761     748     749     750
     751     753     754     759     760     763     749     750     751     752
     753     754     759     760     761     763     764     750     751     752
     753     754     760     763     764     765     777     751     753     763
     764     752     753     754     761     763     764     765     777     753
     754     763     764     754     760     761     763     764     759     761
     763     756     758     762     757     762     758       0     760       0
       0       0     764     765     766     776     777     778     785     765
     766     767     776     777     778     779     784     785     766     767
     768     776     777     778     779     785     767     768     769     776
     777     778     779     784     768     769     770     775     776     777
     778     779     784     785     769     770     771     774     775     776
     777     779     780     783     784     770     771     772     774     775
     776     780     781     782     783     771     772     773     774     775
     780     781     783     772     773     774     775     780     781     782
     787     788     773     774     775     780     781     782     783     786
     787     788     789     790     806     774     775     781     782     786
     787     788     789     790     791     805     806     775     781     782
     783     787     788     780     782     783     777     779     784     785
     778     784     785     779       0     781       0     783       0     785
       0     787     788     790     805     806     788     789     790     791
     793     805     806     812     789     790     791     792     805     806
     807     790     791     806     791     792     793     805     806     807
     808     812     792     793     794     805     806     807     808     793
     794     795     805     806     807     808     812     794     795     796
     804     805     806     807     808     812     795     796     797     803
     804     805     806     808     809     811     812     796     797     798
     801     803     804     805     809     810     811     797     798     799
     803     804     809     810     811     798     799     800     801     803
     804     809     810     813     799     800     801     802     803     804
     809     810     811     813     814     800     801     802     803     804
     810     813     814     815     833     801     803     813     814     802
     803     804     811     813     814     815     833     803     804     813
     814     804     810     811     813     814     809     811     813     806
     808     812     807     812     808       0     810       0       0       0
     814     815     816     819     833     834     846     815     816     817
     818     819     820     833     834     846     816     817     818     819
     833     834     835     846     848     849     817     818     819     820
     833     834     835     847     848     849     850     851     867     818
     819     834     835     847     848     849     850     851     852     866
     867     819     820     821     822     833     834     835     846     848
     849     820     821     822     823     833     835     836     846     821
     822     823     824     833     835     836     837     838     846     822
     823     833     836     823     824     825     833     836     837     838
     839     840     824     825     826     832     836     837     838     839
     840     825     826     827     830     832     836     837     838     839
     840     841     845     826     827     828     830     831     832     837
     838     839     840     841     842     845     827     828     829     830
     832     839     840     841     842     845     828     829     830     831
     832     841     842     843     829     830     831     832     841     842
     843     844     845     830     831     832     842     843     831     832
     842     843     844     845     832     844     845     839     840     841
     844     845     834     835     846       0       0     837     838     838
     839     840     839     840     840       0     842       0       0       0
       0       0     848     849     851     866     867     849     850     851
     852     854     866     867     873     850     851     852     853     866
     867     868     851     852     867     852     853     854     866     867
     868     869     873     853     854     855     866     867     868     869
     854     855     856     866     867     868     869     873     855     856
     857     865     866     867     868     869     873     856     857     858
     864     865     866     867     869     870     872     873     857     858
     859     862     864     865     866     870     871     872     858     859
     860     864     865     870     871     872     859     860     861     862
     864     865     870     871     874     860     861     862     863     864
     865     870     871     872     874     875     861     862     863     864
     865     871     874     875     876     888     862     864     874     875
     863     864     865     872     874     875     876     888     864     865
     874     875     865     871     872     874     875     870     872     874
     867     869     873     868     873     869       0     871       0       0
       0     875     876     877     887     888     889     898     876     877
     878     887     888     889     890     897     898     877     878     879
     887     888     889     890     898     878     879     880     887     888
     889     890     897     879     880     881     886     887     888     889
     890     897     898     880     881     882     885     886     887     888
     890     891     896     897     881     882     883     885     886     887
     891     892     895     896     882     883     884     885     886     891
     892     896     883     884     885     886     891     892     893     894
     895     884     885     886     891     892     893     894     895     896
     885     886     892     893     894     895     886     892     893     894
     895     896     891     895     896     888     890     897     898     889
     897     898     890       0     892       0     894       0     896       0
     898       0     900     901     902     912     913     914     915     916
     923     901     902     903     912     913     914     915     916     917
     922     923     902     903     904     912     913     914     915     916
     917     923     903     904     905     912     913     916     917     922
     904     905     906     911     912     913     916     917     922     923
     905     906     907     910     911     912     913     917     918     921
     922     906     907     908     910     911     912     918     919     920
     921     907     908     909     910     911     918     919     921     908
     909     910     911     918     919     920     925     926     909     910
     911     918     919     920     921     924     925     926     927     928
     944     910     911     919     920     924     925     926     927     928
     929     943     944     911     919     920     921     925     926     918
     920     921     913     917     922     923     914     915     916     922
     923     915       0     917       0     919       0     921       0     923
       0     925     926     928     943     944     926     927     928     929
     931     943     944     950     927     928     929     930     943     944
     945     928     929     944     929     930     931     943     944     945
     946     950     930     931     932     943     944     945     946     931
     932     933     943     944     945     946     950     932     933     934
     942     943     944     945     946     950     933     934     935     941
     942     943     944     946     947     949     950     934     935     936
     939     941     942     943     947     948     949     935     936     937
     941     942     947     948     949     936     937     938     939     941
     942     947     948     951     937     938     939     940     941     942
     947     948     949     951     952     938     939     940     941     942
     948     951     952     953     971     939     941     951     952     940
     941     942     949     951     952     953     971     941     942     951
     952     942     948     949     951     952     947     949     951     944
     946     950     945     950     946       0     948       0       0       0
     952     953     954     957     971     972     984     953     954     955
     956     957     958     971     972     984     954     955     956     957
     971     972     973     984     986     987     955     956     957     958
     971     972     973     985     986     987     988     989    1005     956
     957     972     973     985     986     987     988     989     990    1004
    1005     957     958     959     960     971     972     973     984     986
     987     958     959     960     961     971     973     974     984     959
     960     961     962     971     973     974     975     976     984     960
     961     971     974     961     962     963     971     974     975     976
     977     978     962     963     964     970     974     975     976     977
     978     963     964     965     968     970     974     975     976     977
     978     979     983     964     965     966     968     969     970     975
     976     977     978     979     980     983     965     966     967     968
     970     977     978     979     980     983     966     967     968     969
     970     979     980     981     967     968     969     970     979     980
     981     982     983     968     969     970     980     981     969     970
     980     981     982     983     970     982     983     977     978     979
     982     983     972     973     984       0       0     975     976     976
     977     978     977     978     978       0     980       0       0       0
       0       0     986     987     989    1004    1005     987     988     989
     990     992    1004    1005    1011     988     989     990     991    1004
    1005    1006     989     990    1005     990     991     992    1004    1005
    1006    1007    1011     991     992     993    1004    1005    1006    1007
     992     993     994    1004    1005    1006    1007    1011     993     994
     995    1003    1004    1005    1006    1007    1011     994     995     996
    1002    1003    1004    1005    1007    1008    1010    1011     995     996
     997    1000    1002    1003    1004    1008    1009    1010     996     997
     998    1002    1003    1008    1009    1010     997     998     999    1000
    1002    1003    1008    1009    1012     998     999    1000    1001    1002
    1003    1008    1009    1010    1012    1013     999    1000    1001    1002
    1003    1009    1012    1013    1014    1026    1000    1002    1012    1013
    1001    1002    1003    1010    1012    1013    1014    1026    1002    1003
    1012    1013    1003    1009    1010    1012    1013    1008    1010    1012
    1005    1007    1011    1006    1011    1007       0    1009       0       0
       0    1013    1014    1015    1025    1026    1027    1034    1014    1015
    1016    1025    1026    1027    1028    1033    1034    1015    1016    1017
    1025    1026    1027    1028    1034    1016    1017    1018    1025    1026
    1027    1028    1033    1017    1018    1019    1024    1025    1026    1027
    1028    1033    1034    1018    1019    1020    1023    1024    1025    1026
    1028    1029    1032    1033    1019    1020    1021    1023    1024    1025
    1029    1030    1031    1032    1020    1021    1022    1023    1024    1029
    1030    1032    1021    1022    1023    1024    1029    1030    1031    1036
    1037    1022    1023    1024    1029    1030    1031    1032    1035    1036
    1037    1038    1039    1055    1023    1024    1030    1031    1035    1036
    1037    1038    1039    1040    1054    1055    1024    1030    1031    1032
    1036    1037    1029    1031    1032    1026    1028    1033    1034    1027
    1033    1034    1028       0    1030       0    1032       0    1034       0
    1036    1037    1039    1054    1055    1037    1038    1039    1040    1042
    1054    1055    1061    1038    1039    1040    1041    1054    1055    1056
    1039    1040    1055    1040    1041    1042    1054    1055    1056    1057
    1061    1041    1042    1043    1054    1055    1056    1057    1042    1043
    1044    1054    1055    1056    1057    1061    1043    1044    1045    1053
    1054    1055    1056    1057    1061    1044    1045    1046    1052    1053
    1054    1055    1057    1058    1060    1061    1045    1046    1047    1050
    1052    1053    1054    1058    1059    1060    1046    1047    1048    1052
    1053    1058    1059    1060    1047    1048    1049    1050    1052    1053
    1058    1059    1062    1048    1049    1050    1051    1052    1053    1058
    1059    1060    1062    1063    1049    1050    1051    1052    1053    1059
    1062    1063    1064    1076    1050    1052    1062    1063    1051    1052
    1053    1060    1062    1063    1064    1076    1052    1053    1062    1063
    1053    1059    1060    1062    1063    1058    1060    1062    1055    1057
    1061    1056    1061    1057       0    1059       0       0       0    1063
    1064    1065    1075    1076    1077    1084    1064    1065    1066    1075
    1076    1077    1078    1083    1084    1065    1066    1067    1075    1076
    1077    1078    1084    1066    1067    1068    1075    1076    1077    1078
    1083    1067    1068    1069    1074    1075    1076    1077    1078    1083
    1084    1068    1069    1070    1073    1074    1075    1076    1078    1079
    1082    1083    1069    1070    1071    1073    1074    1075    1079    1080
    1081    1082    1070    1071    1072    1073    1074    1079    1080    1082
    1071    1072    1073    1074    1079    1080    1081    1086    1087    1072
    1073    1074    1079    1080    1081    1082    1085    1086    1087    1088
    1089    1105    1073    1074    1080    1081    1085    1086    1087    1088
    1089    1090    1104    1105    1074    1080    1081    1082    1086    1087
    1079    1081    1082    1076    1078    1083    1084    1077    1083    1084
    1078       0    1080       0    1082       0    1084       0    1086    1087
    1089    1104    1105    1087    1088    1089    1090    1092    1104    1105
    1111    1088    1089    1090    1091    1104    1105    1106    1089    1090
    1105    1090    1091    1092    1104    1105    1106    1107    1111    1091
    1092    1093    1104    1105    1106    1107    1092    1093    1094    1104
    1105    1106    1107    1111    1093    1094    1095    1103    1104    1105
    1106    1107    1111    1094    1095    1096    1102    1103    1104    1105
    1107    1108    1110    1111    1095    1096    1097    1100    1102    1103
    1104    1108    1109    1110    1096    1097    1098    1102    1103    1108
    1109    1110    1097    1098    1099    1100    1102    1103    1108    1109
    1112    1098    1099    1100    1101    1102    1103    1108    1109    1110
    1112    1113    1099    1100    1101    1102    1103    1109    1112    1113
    1114    1126    1100    1102    1112    1113    1101    1102    1103    1110
    1112    1113    1114    1126    1102    1103    1112    1113    1103    1109
    1110    1112    1113    1108    1110    1112    1105    1107    1111    1106
    1111    1107       0    1109       0       0       0    1113    1114    1115
    1125    1126    1127    1134    1114    1115    1116    1125    1126    1127
    1128    1133    1134    1115    1116    1117    1125    1126    1127    1128
    1134    1116    1117    1118    1125    1126    1127    1128    1133    1117
    1118    1119    1124    1125    1126    1127    1128    1133    1134    1118
    1119    1120    1123    1124    1125    1126    1128    1129    1132    1133
    1119    1120    1121    1123    1124    1125    1129    1130    1131    1132
    1120    1121    1122    1123    1124    1129    1130    1132    1121    1122
    1123    1124    1129    1130    1131    1136    1137    1122    1123    1124
    1129    1130    1131    1132    1135    1136    1137    1138    1139    1155
    1123    1124    1130    1131    1135    1136    1137    1138    1139    1140
    1154    1155    1124    1130    1131    1132    1136    1137    1129    1131
    1132    1126    1128    1133    1134    1127    1133    1134    1128       0
    1130       0    1132       0    1134       0    1136    1137    1139    1154
    1155    1137    1138    1139    1140    1142    1154    1155    1161    1138
    1139    1140    1141    1154    1155    1156    1139    1140    1155    1140
    1141    1142    1154    1155    1156    1157    1161    1141    1142    1143
    1154    1155    1156    1157    1142    1143    1144    1154    1155    1156
    1157    1161    1143    1144    1145    1153    1154    1155    1156    1157
    1161    1144    1145    1146    1152    1153    1154    1155    1157    1158
    1160    1161    1145    1146    1147    1150    1152    1153    1154    1158
    1159    1160    1146    1147    1148    1152    1153    1158    1159    1160
    1147    1148    1149    1150    1152    1153    1158    1159    1162    1148
    1149    1150    1151    1152    1153    1158    1159    1160    1162    1163
    1149    1150    1151    1152    1153    1159    1162    1163    1164    1176
    1150    1152    1162    1163    1151    1152    1153    1160    1162    1163
    1164    1176    1152    1153    1162    1163    1153    1159    1160    1162
    1163    1158    1160    1162    1155    1157    1161    1156    1161    1157
       0    1159       0       0       0    1163    1164    1165    1175    1176
    1177    1184    1164    1165    1166    1175    1176    1177    1178    1183
    1184    1165    1166    1167    1175    1176    1177    1178    1184    1166
    1167    1168    1175    1176    1177    1178    1183    1167    1168    1169
    1174    1175    1176    1177    1178    1183    1184    1168    1169    1170
    1173    1174    1175    1176    1178    1179    1182    1183    1169    1170
    1171    1173    1174    1175    1179    1180    1181    1182    1170    1171
    1172    1173    1174    1179    1180    1182    1171    1172    1173    1174
    1179    1180    1181    1186    1187    1172    1173    1174    1179    1180
    1181    1182    1185    1186    1187    1188    1189    1205    1173    1174
    1180    1181    1185    1186    1187    1188    1189    1190    1204    1205
    1174    1180    1181    1182    1186    1187    1179    1181    1182    1176
    1178    1183    1184    1177    1183    1184    1178       0    1180       0
    1182       0    1184       0    1186    1187    1189    1204    1205    1187
    1188    1189    1190    1192    1204    1205    1211    1188    1189    1190
    1191    1204    1205    1206    1189    1190    1205    1190    1191    1192
    1204    1205    1206    1207    1211    1191    1192    1193    1204    1205
    1206    1207    1192    1193    1194    1204    1205    1206    1207    1211
    1193    1194    1195    1203    1204    1205    1206    1207    1211    1194
    1195    1196    1202    1203    1204    1205    1207    1208    1210    1211
    1195    1196    1197    1200    1202    1203    1204    1208    1209    1210
    1196    1197    1198    1202    1203    1208    1209    1210    1197    1198
    1199    1200    1202    1203    1208    1209    1212    1198    1199    1200
    1201    1202    1203    1208    1209    1210    1212    1213    1199    1200
    1201    1202    1203    1209    1212    1213    1214    1226    1200    1202
    1212    1213    1201    1202    1203    1210    1212    1213    1214    1226
    1202    1203    1212    1213    1203    1209    1210    1212    1213    1208
    1210    1212    1205    1207    1211    1206    1211    1207       0    1209
       0       0       0    1213    1214    1215    1225    1226    1227    1234
    1214    1215    1216    1225    1226    1227    1228    1233    1234    1215
    1216    1217    1225    1226    1227    1228    1234    1216    1217    1218
    1225    1226    1227    1228    1233    1217    1218    1219    1224    1225
    1226    1227    1228    1233    1234    1218    1219    1220    1223    1224
    1225    1226    1228    1229    1232    1233    1219    1220    1221    1223
    1224    1225    1229    1230    1231    1232    1220    1221    1222    1223
    1224    1229    1230    1232    1221    1222    1223    1224    1229    1230
    1231    1236    1237    1222    1223    1224    1229    1230    1231    1232
    1235    1236    1237    1238    1239    1255    1223    1224    1230    1231
    1235    1236    1237    1238    1239    1240    1254    1255    1224    1230
    1231    1232    1236    1237    1229    1231    1232    1226    1228    1233
    1234    1227    1233    1234    1228       0    1230       0    1232       0
    1234       0    1236    1237    1239    1254    1255    1237    1238    1239
    1240    1242    1254    1255    1261    1238    1239    1240    1241    1254
    1255    1256    1239    1240    1255    1240    1241    1242    1254    1255
    1256    1257    1261    1241    1242    1243    1254    1255    1256    1257
    1242    1243    1244    1254    1255    1256    1257    1261    1243    1244
    1245    1253    1254    1255    1256    1257    1261    1244    1245    1246
    1252    1253    1254    1255    1257    1258    1260    1261    1245    1246
    1247    1250    1252    1253    1254    1258    1259    1260    1246    1247
    1248    1252    1253    1258    1259    1260    1247    1248    1249    1250
    1252    1253    1258    1259    1262    1248    1249    1250    1251    1252
    1253    1258    1259    1260    1262    1263    1249    1250    1251    1252
    1253    1259    1262    1263    1264    1282    1250    1252    1262    1263
    1251    1252    1253    1260    1262    1263    1264    1282    1252    1253
    1262    1263    1253    1259    1260    1262    1263    1258    1260    1262
    1255    1257    1261    1256    1261    1257       0    1259       0       0
       0    1263    1264    1265    1268    1282    1283    1295    1264    1265
    1266    1267    1268    1269    1282    1283    1295    1265    1266    1267
    1268    1282    1283    1284    1295    1297    1298    1266    1267    1268
    1269    1282    1283    1284    1296    1297    1298    1299    1300    1316
    1267    1268    1283    1284    1296    1297    1298    1299    1300    1301
    1315    1316    1268    1269    1270    1271    1282    1283    1284    1295
    1297    1298    1269    1270    1271    1272    1282    1284    1285    1295
    1270    1271    1272    1273    1282    1284    1285    1286    1287    1295
    1271    1272    1282    1285    1272    1273    1274    1282    1285    1286
    1287    1288    1289    1273    1274    1275    1281    1285    1286    1287
    1288    1289    1274    1275    1276    1279    1281    1285    1286    1287
    1288    1289    1290    1294    1275    1276    1277    1279    1280    1281
    1286    1287    1288    1289    1290    1291    1294    1276    1277    1278
    1279    1281    1288    1289    1290    1291    1294    1277    1278    1279
    1280    1281    1290    1291    1292    1278    1279    1280    1281    1290
    1291    1292    1293    1294    1279    1280    1281    1291    1292    1280
    1281    1291    1292    1293    1294    1281    1293    1294    1288    1289
    1290    1293    1294    1283    1284    1295       0       0    1286    1287
    1287    1288    1289    1288    1289    1289       0    1291       0       0
       0       0       0    1297    1298    1300    1315    1316    1298    1299
    1300    1301    1303    1315    1316    1322    1299    1300    1301    1302
    1315    1316    1317    1300    1301    1316    1301    1302    1303    1315
    1316    1317    1318    1322    1302    1303    1304    1315    1316    1317
    1318    1303    1304    1305    1315    1316    1317    1318    1322    1304
    1305    1306    1314    1315    1316    1317    1318    1322    1305    1306
    1307    1313    1314    1315    1316    1318    1319    1321    1322    1306
    1307    1308    1311    1313    1314    1315    1319    1320    1321    1307
    1308    1309    1313    1314    1319    1320    1321    1308    1309    1310
    1311    1313    1314    1319    1320    1323    1309    1310    1311    1312
    1313    1314    1319    1320    1321    1323    1324    1310    1311    1312
    1313    1314    1320    1323    1324    1325    1337    1311    1313    1323
    1324    1312    1313    1314    1321    1323    1324    1325    1337    1313
    1314    1323    1324    1314    1320    1321    1323    1324    1319    1321
    1323    1316    1318    1322    1317    1322    1318       0    1320       0
       0       0    1324    1325    1326    1336    1337    1338    1347    1325
    1326    1327    1336    1337    1338    1339    1346    1347    1326    1327
    1328    1336    1337    1338    1339    1347    1327    1328    1329    1336
    1337    1338    1339    1346    1328    1329    1330    1335    1336    1337
    1338    1339    1346    1347    1329    1330    1331    1334    1335    1336
    1337    1339    1340    1345    1346    1330    1331    1332    1334    1335
    1336    1340    1341    1344    1345    1331    1332    1333    1334    1335
    1340    1341    1345    1332    1333    1334    1335    1340    1341    1342
    1343    1344    1333    1334    1335    1340    1341    1342    1343    1344
    1345    1334    1335    1341    1342    1343    1344    1335    1341    1342
    1343    1344    1345    1340    1344    1345    1337    1339    1346    1347
    1338    1346    1347    1339       0    1341       0    1343       0    1345
       0    1347       0    1349    1350    1351    1361    1362    1363    1364
    1365    1372    1350    1351    1352    1361    1362    1363    1364    1365
    1366    1371    1372    1351    1352    1353    1361    1362    1363    1364
    1365    1366    1372    1352    1353    1354    1361    1362    1365    1366
    1371    1353    1354    1355    1360    1361    1362    1365    1366    1371
    1372    1354    1355    1356    1359    1360    1361    1362    1366    1367
    1370    1371    1355    1356    1357    1359    1360    1361    1367    1368
    1369    1370    1356    1357    1358    1359    1360    1367    1368    1370
    1357    1358    1359    1360    1367    1368    1369    1374    1375    1358
    1359    1360    1367    1368    1369    1370    1373    1374    1375    1376
    1377    1393    1359    1360    1368    1369    1373    1374    1375    1376
    1377    1378    1392    1393    1360    1368    1369    1370    1374    1375
    1367    1369    1370    1362    1366    1371    1372    1363    1364    1365
    1371    1372    1364       0    1366       0    1368       0    1370       0
    1372       0    1374    1375    1377    1392    1393    1375    1376    1377
    1378    1380    1392    1393    1399    1376    1377    1378    1379    1392
    1393    1394    1377    1378    1393    1378    1379    1380    1392    1393
    1394    1395    1399    1379    1380    1381    1392    1393    1394    1395
    1380    1381    1382    1392    1393    1394    1395    1399    1381    1382
    1383    1391    1392    1393    1394    1395    1399    1382    1383    1384
    1390    1391    1392    1393    1395    1396    1398    1399    1383    1384
    1385    1388    1390    1391    1392    1396    1397    1398    1384    1385
    1386    1390    1391    1396    1397    1398    1385    1386    1387    1388
    1390    1391    1396    1397    1400    1386    1387    1388    1389    1390
    1391    1396    1397    1398    1400    1401    1387    1388    1389    1390
    1391    1397    1400    1401    1402    1420    1388    1390    1400    1401
    1389    1390    1391    1398    1400    1401    1402    1420    1390    1391
    1400    1401    1391    1397    1398    1400    1401    1396    1398    1400
    1393    1395    1399    1394    1399    1395       0    1397       0       0
       0    1401    1402    1403    1406    1420    1421    1433    1402    1403
    1404    1405    1406    1407    1420    1421    1433    1403    1404    1405
    1406    1420    1421    1422    1433    1435    1436    1404    1405    1406
    1407    1420    1421    1422    1434    1435    1436    1437    1438    1454
    1405    1406    1421    1422    1434    1435    1436    1437    1438    1439
    1453    1454    1406    1407    1408    1409    1420    1421    1422    1433
    1435    1436    1407    1408    1409    1410    1420    1422    1423    1433
    1408    1409    1410    1411    1420    1422    1423    1424    1425    1433
    1409    1410    1420    1423    1410    1411    1412    1420    1423    1424
    1425    1426    1427    1411    1412    1413    1419    1423    1424    1425
    1426    1427    1412    1413    1414    1417    1419    1423    1424    1425
    1426    1427    1428    1432    1413    1414    1415    1417    1418    1419
    1424    1425    1426    1427    1428    1429    1432    1414    1415    1416
    1417    1419    1426    1427    1428    1429    1432    1415    1416    1417
    1418    1419    1428    1429    1430    1416    1417    1418    1419    1428
    1429    1430    1431    1432    1417    1418    1419    1429    1430    1418
    1419    1429    1430    1431    1432    1419    1431    1432    1426    1427
    1428    1431    1432    1421    1422    1433       0       0    1424    1425
    1425    1426    1427    1426    1427    1427       0    1429       0       0
       0       0       0    1435    1436    1438    1453    1454    1436    1437
    1438    1439    1441    1453    1454    1460    1437    1438    1439    1440
    1453    1454    1455    1438    1439    1454    1439    1440    1441    1453
    1454    1455    1456    1460    1440    1441    1442    1453    1454    1455
    1456    1441    1442    1443    1453    1454    1455    1456    1460    1442
    1443    1444    1452    1453    1454    1455    1456    1460    1443    1444
    1445    1451    1452    1453    1454    1456    1457    1459    1460    1444
    1445    1446    1449    1451    1452    1453    1457    1458    1459    1445
    1446    1447    1451    1452    1457    1458    1459    1446    1447    1448
    1449    1451    1452    1457    1458    1461    1447    1448    1449    1450
    1451    1452    1457    1458    1459    1461    1462    1448    1449    1450
    1451    1452    1458    1461    1462    1463    1475    1449    1451    1461
    1462    1450    1451    1452    1459    1461    1462    1463    1475    1451
    1452    1461    1462    1452    1458    1459    1461    1462    1457    1459
    1461    1454    1456    1460    1455    1460    1456       0    1458       0
       0       0    1462    1463    1464    1474    1475    1476    1483    1463
    1464    1465    1474    1475    1476    1477    1482    1483    1464    1465
    1466    1474    1475    1476    1477    1483    1465    1466    1467    1474
    1475    1476    1477    1482    1466    1467    1468    1473    1474    1475
    1476    1477    1482    1483    1467    1468    1469    1472    1473    1474
    1475    1477    1478    1481    1482    1468    1469    1470    1472    1473
    1474    1478    1479    1480    1481    1469    1470    1471    1472    1473
    1478    1479    1481    1470    1471    1472    1473    1478    1479    1480
    1485    1486    1471    1472    1473    1478    1479    1480    1481    1484
    1485    1486    1487    1488    1504    1472    1473    1479    1480    1484
    1485    1486    1487    1488    1489    1503    1504    1473    1479    1480
    1481    1485    1486    1478    1480    1481    1475    1477    1482    1483
    1476    1482    1483    1477       0    1479       0    1481       0    1483
       0    1485    1486    1488    1503    1504    1486    1487    1488    1489
    1491    1503    1504    1510    1487    1488    1489    1490    1503    1504
    1505    1488    1489    1504    1489    1490    1491    1503    1504    1505
    1506    1510    1490    1491    1492    1503    1504    1505    1506    1491
    1492    1493    1503    1504    1505    1506    1510    1492    1493    1494
    1502    1503    1504    1505    1506    1510    1493    1494    1495    1501
    1502    1503    1504    1506    1507    1509    1510    1494    1495    1496
    1499    1501    1502    1503    1507    1508    1509    1495    1496    1497
    1501    1502    1507    1508    1509    1496    1497    1498    1499    1501
    1502    1507    1508    1511    1497    1498    1499    1500    1501    1502
    1507    1508    1509    1511    1512    1498    1499    1500    1501    1502
    1508    1511    1512    1513    1525    1499    1501    1511    1512    1500
    1501    1502    1509    1511    1512    1513    1525    1501    1502    1511
    1512    1502    1508    1509    1511    1512    1507    1509    1511    1504
    1506    1510    1505    1510    1506       0    1508       0       0       0
    1512    1513    1514    1524    1525    1526    1533    1513    1514    1515
    1524    1525    1526    1527    1532    1533    1514    1515    1516    1524
    1525    1526    1527    1533    1515    1516    1517    1524    1525    1526
    1527    1532    1516    1517    1518    1523    1524    1525    1526    1527
    1532    1533    1517    1518    1519    1522    1523    1524    1525    1527
    1528    1531    1532    1518    1519    1520    1522    1523    1524    1528
    1529    1530    1531    1519    1520    1521    1522    1523    1528    1529
    1531    1520    1521    1522    1523    1528    1529    1530    1535    1536
    1521    1522    1523    1528    1529    1530    1531    1534    1535    1536
    1537    1538    1554    1522    1523    1529    1530    1534    1535    1536
    1537    1538    1539    1553    1554    1523    1529    1530    1531    1535
    1536    1528    1530    1531    1525    1527    1532    1533    1526    1532
    1533    1527       0    1529       0    1531       0    1533       0    1535
    1536    1538    1553    1554    1536    1537    1538    1539    1541    1553
    1554    1560    1537    1538    1539    1540    1553    1554    1555    1538
    1539    1554    1539    1540    1541    1553    1554    1555    1556    1560
    1540    1541    1542    1553    1554    1555    1556    1541    1542    1543
    1553    1554    1555    1556    1560    1542    1543    1544    1552    1553
    1554    1555    1556    1560    1543    1544    1545    1551    1552    1553
    1554    1556    1557    1559    1560    1544    1545    1546    1549    1551
    1552    1553    1557    1558    1559    1545    1546    1547    1551    1552
    1557    1558    1559    1546    1547    1548    1549    1551    1552    1557
    1558    1561    1547    1548    1549    1550    1551    1552    1557    1558
    1559    1561    1562    1548    1549    1550    1551    1552    1558    1561
    1562    1563    1575    1549    1551    1561    1562    1550    1551    1552
    1559    1561    1562    1563    1575    1551    1552    1561    1562    1552
    1558    1559    1561    1562    1557    1559    1561    1554    1556    1560
    1555    1560    1556       0    1558       0       0       0    1562    1563
    1564    1574    1575    1576    1583    1563    1564    1565    1574    1575
    1576    1577    1582    1583    1564    1565    1566    1574    1575    1576
    1577    1583    1565    1566    1567    1574    1575    1576    1577    1582
    1566    1567    1568    1573    1574    1575    1576    1577    1582    1583
    1567    1568    1569    1572    1573    1574    1575    1577    1578    1581
    1582    1568    1569    1570    1572    1573    1574    1578    1579    1580
    1581    1569    1570    1571    1572    1573    1578    1579    1581    1570
    1571    1572    1573    1578    1579    1580    1585    1586    1571    1572
    1573    1578    1579    1580    1581    1584    1585    1586    1587    1588
    1604    1572    1573    1579    1580    1584    1585    1586    1587    1588
    1589    1603    1604    1573    1579    1580    1581    1585    1586    1578
    1580    1581    1575    1577    1582    1583    1576    1582    1583    1577
       0    1579       0    1581       0    1583       0    1585    1586    1588
    1603    1604    1586    1587    1588    1589    1591    1603    1604    1610
    1587    1588    1589    1590    1603    1604    1605    1588    1589    1604
    1589    1590    1591    1603    1604    1605    1606    1610    1590    1591
    1592    1603    1604    1605    1606    1591    1592    1593    1603    1604
    1605    1606    1610    1592    1593    1594    1602    1603    1604    1605
    1606    1610    1593    1594    1595    1601    1602    1603    1604    1606
    1607    1609    1610    1594    1595    1596    1599    1601    1602    1603
    1607    1608    1609    1595    1596    1597    1601    1602    1607    1608
    1609    1596    1597    1598    1599    1601    1602    1607    1608    1611
    1597    1598    1599    1600    1601    1602    1607    1608    1609    1611
    1612    1598    1599    1600    1601    1602    1608    1611    1612    1613
    1625    1599    1601    1611    1612    1600    1601    1602    1609    1611
    1612    1613    1625    1601    1602    1611    1612    1602    1608    1609
    1611    1612    1607    1609    1611    1604    1606    1610    1605    1610
    1606       0    1608       0       0       0    1612    1613    1614    1624
    1625    1626    1633    1613    1614    1615    1624    1625    1626    1627
    1632    1633    1614    1615    1616    1624    1625    1626    1627    1633
    1615    1616    1617    1624    1625    1626    1627    1632    1616    1617
    1618    1623    1624    1625    1626    1627    1632    1633    1617    1618
    1619    1622    1623    1624    1625    1627    1628    1631    1632    1618
    1619    1620    1622    1623    1624    1628    1629    1630    1631    1619
    1620    1621    1622    1623    1628    1629    1631    1620    1621    1622
    1623    1628    1629    1630    1635    1636    1621    1622    1623    1628
    1629    1630    1631    1634    1635    1636    1637    1638    1654    1622
    1623    1629    1630    1634    1635    1636    1637    1638    1639    1653
    1654    1623    1629    1630    1631    1635    1636    1628    1630    1631
    1625    1627    1632    1633    1626    1632    1633    1627       0    1629
       0    1631       0    1633       0    1635    1636    1638    1653    1654
    1636    1637    1638    1639    1641    1653    1654    1660    1637    1638
    1639    1640    1653    1654    1655    1638    1639    1654    1639    1640
    1641    1653    1654    1655    1656    1660    1640    1641    1642    1653
    1654    1655    1656    1641    1642    1643    1653    1654    1655    1656
    1660    1642    1643    1644    1652    1653    1654    1655    1656    1660
    1643    1644    1645    1651    1652    1653    1654    1656    1657    1659
    1660    1644    1645    1646    1649    1651    1652    1653    1657    1658
    1659    1645    1646    1647    1651    1652    1657    1658    1659    1646
    1647    1648    1649    1651    1652    1657    1658    1661    1647    1648
    1649    1650    1651    1652    1657    1658    1659    1661    1662    1648
    1649    1650    1651    1652    1658    1661    1662    1663    1675    1649
    1651    1661    1662    1650    1651    1652    1659    1661    1662    1663
    1675    1651    1652    1661    1662    1652    1658    1659    1661    1662
    1657    1659    1661    1654    1656    1660    1655    1660    1656       0
    1658       0       0       0    1662    1663    1664    1674    1675    1676
    1683    1663    1664    1665    1674    1675    1676    1677    1682    1683
    1664    1665    1666    1674    1675    1676    1677    1683    1665    1666
    1667    1674    1675    1676    1677    1682    1666    1667    1668    1673
    1674    1675    1676    1677    1682    1683    1667    1668    1669    1672
    1673    1674    1675    1677    1678    1681    1682    1668    1669    1670
    1672    1673    1674    1678    1679    1680    1681    1669    1670    1671
    1672    1673    1678    1679    1681    1670    1671    1672    1673    1678
    1679    1680    1685    1686    1671    1672    1673    1678    1679    1680
    1681    1684    1685    1686    1687    1688    1704    1672    1673    1679
    1680    1684    1685    1686    1687    1688    1689    1703    1704    1673
    1679    1680    1681    1685    1686    1678    1680    1681    1675    1677
    1682    1683    1676    1682    1683    1677       0    1679       0    1681
       0    1683       0    1685    1686    1688    1703    1704    1686    1687
    1688    1689    1691    1703    1704    1710    1687    1688    1689    1690
    1703    1704    1705    1688    1689    1704    1689    1690    1691    1703
    1704    1705    1706    1710    1690    1691    1692    1703    1704    1705
    1706    1691    1692    1693    1703    1704    1705    1706    1710    1692
    1693    1694    1702    1703    1704    1705    1706    1710    1693    1694
    1695    1701    1702    1703    1704    1706    1707    1709    1710    1694
    1695    1696    1699    1701    1702    1703    1707    1708    1709    1695
    1696    1697    1701    1702    1707    1708    1709    1696    1697    1698
    1699    1701    1702    1707    1708    1711    1697    1698    1699    1700
    1701    1702    1707    1708    1709    1711    1712    1698    1699    1700
    1701    1702    1708    1711    1712    1713    1731    1699    1701    1711
    1712    1700    1701    1702    1709    1711    1712    1713    1731    1701
    1702    1711    1712    1702    1708    1709    1711    1712    1707    1709
    1711    1704    1706    1710    1705    1710    1706       0    1708       0
       0       0    1712    1713    1714    1717    1731    1732    1744    1713
    1714    1715    1716    1717    1718    1731    1732    1744    1714    1715
    1716    1717    1731    1732    1733    1744    1746    1747    1715    1716
    1717    1718    1731    1732    1733    1745    1746    1747    1748    1749
    1765    1716    1717    1732    1733    1745    1746    1747    1748    1749
    1750    1764    1765    1717    1718    1719    1720    1731    1732    1733
    1744    1746    1747    1718    1719    1720    1721    1731    1733    1734
    1744    1719    1720    1721    1722    1731    1733    1734    1735    1736
    1744    1720    1721    1731    1734    1721    1722    1723    1731    1734
    1735    1736    1737    1738    1722    1723    1724    1730    1734    1735
    1736    1737    1738    1723    1724    1725    1728    1730    1734    1735
    1736    1737    1738    1739    1743    1724    1725    1726    1728    1729
    1730    1735    1736    1737    1738    1739    1740    1743    1725    1726
    1727    1728    1730    1737    1738    1739    1740    1743    1726    1727
    1728    1729    1730    1739    1740    1741    1727    1728    1729    1730
    1739    1740    1741    1742    1743    1728    1729    1730    1740    1741
    1729    1730    1740    1741    1742    1743    1730    1742    1743    1737
    1738    1739    1742    1743    1732    1733    1744       0       0    1735
    1736    1736    1737    1738    1737    1738    1738       0    1740       0
       0       0       0       0    1746    1747    1749    1764    1765    1747
    1748    1749    1750    1752    1764    1765    1771    1748    1749    1750
    1751    1764    1765    1766    1749    1750    1765    1750    1751    1752
    1764    1765    1766    1767    1771    1751    1752    1753    1764    1765
    1766    1767    1752    1753    1754    1764    1765    1766    1767    1771
    1753    1754    1755    1763    1764    1765    1766    1767    1771    1754
    1755    1756    1762    1763    1764    1765    1767    1768    1770    1771
    1755    1756    1757    1760    1762    1763    1764    1768    1769    1770
    1756    1757    1758    1762    1763    1768    1769    1770    1757    1758
    1759    1760    1762    1763    1768    1769    1772    1758    1759    1760
    1761    1762    1763    1768    1769    1770    1772    1773    1759    1760
    1761    1762    1763    1769    1772    1773    1774    1786    1760    1762
    1772    1773    1761    1762    1763    1770    1772    1773    1774    1786
    1762    1763    1772    1773    1763    1769    1770    1772    1773    1768
    1770    1772    1765    1767    1771    1766    1771    1767       0    1769
       0       0       0    1773    1774    1775    1785    1786    1787    1796
    1774    1775    1776    1785    1786    1787    1788    1795    1796    1775
    1776    1777    1785    1786    1787    1788    1796    1776    1777    1778
    1785    1786    1787    1788    1795    1777    1778    1779    1784    1785
    1786    1787    1788    1795    1796    1778    1779    1780    1783    1784
    1785    1786    1788    1789    1794    1795    1779    1780    1781    1783
    1784    1785    1789    1790    1793    1794    1780    1781    1782    1783
    1784    1789    1790    1794    1781    1782    1783    1784    1789    1790
    1791    1792    1793    1782    1783    1784    1789    1790    1791    1792
    1793    1794    1783    1784    1790    1791    1792    1793    1784    1790
    1791    1792    1793    1794    1789    1793    1794    1786    1788    1795
    1796    1787    1795    1796    1788       0    1790       0    1792       0
    1794       0    1796       0    1798    1799    1800    1810    1811    1812
    1813    1814    1821    1799    1800    1801    1810    1811    1812    1813
    1814    1815    1820    1821    1800    1801    1802    1810    1811    1812
    1813    1814    1815    1821    1801    1802    1803    1810    1811    1814
    1815    1820    1802    1803    1804    1809    1810    1811    1814    1815
    1820    1821    1803    1804    1805    1808    1809    1810    1811    1815
    1816    1819    1820    1804    1805    1806    1808    1809    1810    1816
    1817    1818    1819    1805    1806    1807    1808    1809    1816    1817
    1819    1806    1807    1808    1809    1816    1817    1818    1823    1824
    1807    1808    1809    1816    1817    1818    1819    1822    1823    1824
    1825    1826    1842    1808    1809    1817    1818    1822    1823    1824
    1825    1826    1827    1841    1842    1809    1817    1818    1819    1823
    1824    1816    1818    1819    1811    1815    1820    1821    1812    1813
    1814    1820    1821    1813       0    1815       0    1817       0    1819
       0    1821       0    1823    1824    1826    1841    1842    1824    1825
    1826    1827    1829    1841    1842    1848    1825    1826    1827    1828
    1841    1842    1843    1826    1827    1842    1827    1828    1829    1841
    1842    1843    1844    1848    1828    1829    1830    1841    1842    1843
    1844    1829    1830    1831    1841    1842    1843    1844    1848    1830
    1831    1832    1840    1841    1842    1843    1844    1848    1831    1832
    1833    1839    1840    1841    1842    1844    1845    1847    1848    1832
    1833    1834    1837    1839    1840    1841    1845    1846    1847    1833
    1834    1835    1839    1840    1845    1846    1847    1834    1835    1836
    1837    1839    1840    1845    1846    1849    1835    1836    1837    1838
    1839    1840    1845    1846    1847    1849    1850    1836    1837    1838
    1839    1840    1846    1849    1850    1851    1869    1837    1839    1849
    1850    1838    1839    1840    1847    1849    1850    1851    1869    1839
    1840    1849    1850    1840    1846    1847    1849    1850    1845    1847
    1849    1842    1844    1848    1843    1848    1844       0    1846       0
       0       0    1850    1851    1852    1855    1869    1870    1882    1851
    1852    1853    1854    1855    1856    1869    1870    1882    1852    1853
    1854    1855    1869    1870    1871    1882    1884    1885    1853    1854
    1855    1856    1869    1870    1871    1883    1884    1885    1886    1887
    1903    1854    1855    1870    1871    1883    1884    1885    1886    1887
    1888    1902    1903    1855    1856    1857    1858    1869    1870    1871
    1882    1884    1885    1856    1857    1858    1859    1869    1871    1872
    1882    1857    1858    1859    1860    1869    1871    1872    1873    1874
    1882    1858    1859    1869    1872    1859    1860    1861    1869    1872
    1873    1874    1875    1876    1860    1861    1862    1868    1872    1873
    1874    1875    1876    1861    1862    1863    1866    1868    1872    1873
    1874    1875    1876    1877    1881    1862    1863    1864    1866    1867
    1868    1873    1874    1875    1876    1877    1878    1881    1863    1864
    1865    1866    1868    1875    1876    1877    1878    1881    1864    1865
    1866    1867    1868    1877    1878    1879    1865    1866    1867    1868
    1877    1878    1879    1880    1881    1866    1867    1868    1878    1879
    1867    1868    1878    1879    1880    1881    1868    1880    1881    1875
    1876    1877    1880    1881    1870    1871    1882       0       0    1873
    1874    1874    1875    1876    1875    1876    1876       0    1878       0
       0       0       0       0    1884    1885    1887    1902    1903    1885
    1886    1887    1888    1890    1902    1903    1909    1886    1887    1888
    1889    1902    1903    1904    1887    1888    1903    1888    1889    1890
    1902    1903    1904    1905    1909    1889    1890    1891    1902    1903
    1904    1905    1890    1891    1892    1902    1903    1904    1905    1909
    1891    1892    1893    1901    1902    1903    1904    1905    1909    1892
    1893    1894    1900    1901    1902    1903    1905    1906    1908    1909
    1893    1894    1895    1898    1900    1901    1902    1906    1907    1908
    1894    1895    1896    1900    1901    1906    1907    1908    1895    1896
    1897    1898    1900    1901    1906    1907    1910    1896    1897    1898
    1899    1900    1901    1906    1907    1908    1910    1911    1897    1898
    1899    1900    1901    1907    1910    1911    1912    1924    1898    1900
    1910    1911    1899    1900    1901    1908    1910    1911    1912    1924
    1900    1901    1910    1911    1901    1907    1908    1910    1911    1906
    1908    1910    1903    1905    1909    1904    1909    1905       0    1907
       0       0       0    1911    1912    1913    1923    1924    1925    1932
    1912    1913    1914    1923    1924    1925    1926    1931    1932    1913
    1914    1915    1923    1924    1925    1926    1932    1914    1915    1916
    1923    1924    1925    1926    1931    1915    1916    1917    1922    1923
    1924    1925    1926    1931    1932    1916    1917    1918    1921    1922
    1923    1924    1926    1927    1930    1931    1917    1918    1919    1921
    1922    1923    1927    1928    1929    1930    1918    1919    1920    1921
    1922    1927    1928    1930    1919    1920    1921    1922    1927    1928
    1929    1934    1935    1920    1921    1922    1927    1928    1929    1930
    1933    1934    1935    1936    1937    1953    1921    1922    1928    1929
    1933    1934    1935    1936    1937    1938    1952    1953    1922    1928
    1929    1930    1934    1935    1927    1929    1930    1924    1926    1931
    1932    1925    1931    1932    1926       0    1928       0    1930       0
    1932       0    1934    1935    1937    1952    1953    1935    1936    1937
    1938    1940    1952    1953    1959    1936    1937    1938    1939    1952
    1953    1954    1937    1938    1953    1938    1939    1940    1952    1953
    1954    1955    1959    1939    1940    1941    1952    1953    1954    1955
    1940    1941    1942    1952    1953    1954    1955    1959    1941    1942
    1943    1951    1952    1953    1954    1955    1959    1942    1943    1944
    1950    1951    1952    1953    1955    1956    1958    1959    1943    1944
    1945    1948    1950    1951    1952    1956    1957    1958    1944    1945
    1946    1950    1951    1956    1957    1958    1945    1946    1947    1948
    1950    1951    1956    1957    1960    1946    1947    1948    1949    1950
    1951    1956    1957    1958    1960    1961    1947    1948    1949    1950
    1951    1957    1960    1961    1962    1974    1948    1950    1960    1961
    1949    1950    1951    1958    1960    1961    1962    1974    1950    1951
    1960    1961    1951    1957    1958    1960    1961    1956    1958    1960
    1953    1955    1959    1954    1959    1955       0    1957       0       0
       0    1961    1962    1963    1973    1974    1975    1982    1962    1963
    1964    1973    1974    1975    1976    1981    1982    1963    1964    1965
    1973    1974    1975    1976    1982    1964    1965    1966    1973    1974
    1975    1976    1981    1965    1966    1967    1972    1973    1974    1975
    1976    1981    1982    1966    1967    1968    1971    1972    1973    1974
    1976    1977    1980    1981    1967    1968    1969    1971    1972    1973
    1977    1978    1979    1980    1968    1969    1970    1971    1972    1977
    1978    1980    1969    1970    1971    1972    1977    1978    1979    1984
    1985    1970    1971    1972    1977    1978    1979    1980    1983    1984
    1985    1986    1987    2003    1971    1972    1978    1979    1983    1984
    1985    1986    1987    1988    2002    2003    1972    1978    1979    1980
    1984    1985    1977    1979    1980    1974    1976    1981    1982    1975
    1981    1982    1976       0    1978       0    1980       0    1982       0
    1984    1985    1987    2002    2003    1985    1986    1987    1988    1990
    2002    2003    2009    1986    1987    1988    1989    2002    2003    2004
    1987    1988    2003    1988    1989    1990    2002    2003    2004    2005
    2009    1989    1990    1991    2002    2003    2004    2005    1990    1991
    1992    2002    2003    2004    2005    2009    1991    1992    1993    2001
    2002    2003    2004    2005    2009    1992    1993    1994    2000    2001
    2002    2003    2005    2006    2008    2009    1993    1994    1995    1998
    2000    2001    2002    2006    2007    2008    1994    1995    1996    2000
    2001    2006    2007    2008    1995    1996    1997    1998    2000    2001
    2006    2007    2010    1996    1997    1998    1999    2000    2001    2006
    2007    2008    2010    2011    1997    1998    1999    2000    2001    2007
    2010    2011    2012    2024    1998    2000    2010    2011    1999    2000
    2001    2008    2010    2011    2012    2024    2000    2001    2010    2011
    2001    2007    2008    2010    2011    2006    2008    2010    2003    2005
    2009    2004    2009    2005       0    2007       0       0       0    2011
    2012    2013    2023    2024    2025    2032    2012    2013    2014    2023
    2024    2025    2026    2031    2032    2013    2014    2015    2023    2024
    2025    2026    2032    2014    2015    2016    2023    2024    2025    2026
    2031    2015    2016    2017    2022    2023    2024    2025    2026    2031
    2032    2016    2017    2018    2021    2022    2023    2024    2026    2027
    2030    2031    2017    2018    2019    2021    2022    2023    2027    2028
    2029    2030    2018    2019    2020    2021    2022    2027    2028    2030
    2019    2020    2021    2022    2027    2028    2029    2034    2035    2020
    2021    2022    2027    2028    2029    2030    2033    2034    2035    2036
    2037    2053    2021    2022    2028    2029    2033    2034    2035    2036
    2037    2038    2052    2053    2022    2028    2029    2030    2034    2035
    2027    2029    2030    2024    2026    2031    2032    2025    2031    2032
    2026       0    2028       0    2030       0    2032       0    2034    2035
    2037    2052    2053    2035    2036    2037    2038    2040    2052    2053
    2059    2036    2037    2038    2039    2052    2053    2054    2037    2038
    2053    2038    2039    2040    2052    2053    2054    2055    2059    2039
    2040    2041    2052    2053    2054    2055    2040    2041    2042    2052
    2053    2054    2055    2059    2041    2042    2043    2051    2052    2053
    2054    2055    2059    2042    2043    2044    2050    2051    2052    2053
    2055    2056    2058    2059    2043    2044    2045    2048    2050    2051
    2052    2056    2057    2058    2044    2045    2046    2050    2051    2056
    2057    2058    2045    2046    2047    2048    2050    2051    2056    2057
    2060    2046    2047    2048    2049    2050    2051    2056    2057    2058
    2060    2061    2047    2048    2049    2050    2051    2057    2060    2061
    2062    2074    2048    2050    2060    2061    2049    2050    2051    2058
    2060    2061    2062    2074    2050    2051    2060    2061    2051    2057
    2058    2060    2061    2056    2058    2060    2053    2055    2059    2054
    2059    2055       0    2057       0       0       0    2061    2062    2063
    2073    2074    2075    2082    2062    2063    2064    2073    2074    2075
    2076    2081    2082    2063    2064    2065    2073    2074    2075    2076
    2082    2064    2065    2066    2073    2074    2075    2076    2081    2065
    2066    2067    2072    2073    2074    2075    2076    2081    2082    2066
    2067    2068    2071    2072    2073    2074    2076    2077    2080    2081
    2067    2068    2069    2071    2072    2073    2077    2078    2079    2080
    2068    2069    2070    2071    2072    2077    2078    2080    2069    2070
    2071    2072    2077    2078    2079    2084    2085    2070    2071    2072
    2077    2078    2079    2080    2083    2084    2085    2086    2087    2103
    2071    2072    2078    2079    2083    2084    2085    2086    2087    2088
    2102    2103    2072    2078    2079    2080    2084    2085    2077    2079
    2080    2074    2076    2081    2082    2075    2081    2082    2076       0
    2078       0    2080       0    2082       0    2084    2085    2087    2102
    2103    2085    2086    2087    2088    2090    2102    2103    2109    2086
    2087    2088    2089    2102    2103    2104    2087    2088    2103    2088
    2089    2090    2102    2103    2104    2105    2109    2089    2090    2091
    2102    2103    2104    2105    2090    2091    2092    2102    2103    2104
    2105    2109    2091    2092    2093    2101    2102    2103    2104    2105
    2109    2092    2093    2094    2100    2101    2102    2103    2105    2106
    2108    2109    2093    2094    2095    2098    2100    2101    2102    2106
    2107    2108    2094    2095    2096    2100    2101    2106    2107    2108
    2095    2096    2097    2098    2100    2101    2106    2107    2110    2096
    2097    2098    2099    2100    2101    2106    2107    2108    2110    2111
    2097    2098    2099    2100    2101    2107    2110    2111    2112    2124
    2098    2100    2110    2111    2099    2100    2101    2108    2110    2111
    2112    2124    2100    2101    2110    2111    2101    2107    2108    2110
    2111    2106    2108    2110    2103    2105    2109    2104    2109    2105
       0    2107       0       0       0    2111    2112    2113    2123    2124
    2125    2132    2112    2113    2114    2123    2124    2125    2126    2131
    2132    2113    2114    2115    2123    2124    2125    2126    2132    2114
    2115    2116    2123    2124    2125    2126    2131    2115    2116    2117
    2122    2123    2124    2125    2126    2131    2132    2116    2117    2118
    2121    2122    2123    2124    2126    2127    2130    2131    2117    2118
    2119    2121    2122    2123    2127    2128    2129    2130    2118    2119
    2120    2121    2122    2127    2128    2130    2119    2120    2121    2122
    2127    2128    2129    2134    2135    2120    2121    2122    2127    2128
    2129    2130    2133    2134    2135    2136    2137    2153    2121    2122
    2128    2129    2133    2134    2135    2136    2137    2138    2152    2153
    2122    2128    2129    2130    2134    2135    2127    2129    2130    2124
    2126    2131    2132    2125    2131    2132    2126       0    2128       0
    2130       0    2132       0    2134    2135    2137    2152    2153    2135
    2136    2137    2138    2140    2152    2153    2159    2136    2137    2138
    2139    2152    2153    2154    2137    2138    2153    2138    2139    2140
    2152    2153    2154    2155    2159    2139    2140    2141    2152    2153
    2154    2155    2140    2141    2142    2152    2153    2154    2155    2159
    2141    2142    2143    2151    2152    2153    2154    2155    2159    2142
    2143    2144    2150    2151    2152    2153    2155    2156    2158    2159
    2143    2144    2145    2148    2150    2151    2152    2156    2157    2158
    2144    2145    2146    2150    2151    2156    2157    2158    2145    2146
    2147    2148    2150    2151    2156    2157    2160    2146    2147    2148
    2149    2150    2151    2156    2157    2158    2160    2161    2147    2148
    2149    2150    2151    2157    2160    2161    2162    2180    2148    2150
    2160    2161    2149    2150    2151    2158    2160    2161    2162    2180
    2150    2151    2160    2161    2151    2157    2158    2160    2161    2156
    2158    2160    2153    2155    2159    2154    2159    2155       0    2157
       0       0       0    2161    2162    2163    2166    2180    2181    2193
    2162    2163    2164    2165    2166    2167    2180    2181    2193    2163
    2164    2165    2166    2180    2181    2182    2193    2195    2196    2164
    2165    2166    2167    2180    2181    2182    2194    2195    2196    2197
    2198    2214    2165    2166    2181    2182    2194    2195    2196    2197
    2198    2199    2213    2214    2166    2167    2168    2169    2180    2181
    2182    2193    2195    2196    2167    2168    2169    2170    2180    2182
    2183    2193    2168    2169    2170    2171    2180    2182    2183    2184
    2185    2193    2169    2170    2180    2183    2170    2171    2172    2180
    2183    2184    2185    2186    2187    2171    2172    2173    2179    2183
    2184    2185    2186    2187    2172    2173    2174    2177    2179    2183
    2184    2185    2186    2187    2188    2192    2173    2174    2175    2177
    2178    2179    2184    2185    2186    2187    2188    2189    2192    2174
    2175    2176    2177    2179    2186    2187    2188    2189    2192    2175
    2176    2177    2178    2179    2188    2189    2190    2176    2177    2178
    2179    2188    2189    2190    2191    2192    2177    2178    2179    2189
    2190    2178    2179    2189    2190    2191    2192    2179    2191    2192
    2186    2187    2188    2191    2192    2181    2182    2193       0       0
    2184    2185    2185    2186    2187    2186    2187    2187       0    2189
       0       0       0       0       0    2195    2196    2198    2213    2214
    2196    2197    2198    2199    2201    2213    2214    2220    2197    2198
    2199    2200    2213    2214    2215    2198    2199    2214    2199    2200
    2201    2213    2214    2215    2216    2220    2200    2201    2202    2213
    2214    2215    2216    2201    2202    2203    2213    2214    2215    2216
    2220    2202    2203    2204    2212    2213    2214    2215    2216    2220
    2203    2204    2205    2211    2212    2213    2214    2216    2217    2219
    2220    2204    2205    2206    2209    2211    2212    2213    2217    2218
    2219    2205    2206    2207    2211    2212    2217    2218    2219    2206
    2207    2208    2209    2211    2212    2217    2218    2221    2207    2208
    2209    2210    2211    2212    2217    2218    2219    2221    2222    2208
    2209    2210    2211    2212    2218    2221    2222    2223    2235    2209
    2211    2221    2222    2210    2211    2212    2219    2221    2222    2223
    2235    2211    2212    2221    2222    2212    2218    2219    2221    2222
    2217    2219    2221    2214    2216    2220    2215    2220    2216       0
    2218       0       0       0    2222    2223    2224    2234    2235    2236
    2245    2223    2224    2225    2234    2235    2236    2237    2244    2245
    2224    2225    2226    2234    2235    2236    2237    2245    2225    2226
    2227    2234    2235    2236    2237    2244    2226    2227    2228    2233
    2234    2235    2236    2237    2244    2245    2227    2228    2229    2232
    2233    2234    2235    2237    2238    2243    2244    2228    2229    2230
    2232    2233    2234    2238    2239    2242    2243    2229    2230    2231
    2232    2233    2238    2239    2243    2230    2231    2232    2233    2238
    2239    2240    2241    2242    2231    2232    2233    2238    2239    2240
    2241    2242    2243    2232    2233    2239    2240    2241    2242    2233
    2239    2240    2241    2242    2243    2238    2242    2243    2235    2237
    2244    2245    2236    2244    2245    2237       0    2239       0    2241
       0    2243       0    2245       0    2247    2248    2249    2259    2260
    2261    2262    2263    2270    2248    2249    2250    2259    2260    2261
    2262    2263    2264    2269    2270    2249    2250    2251    2259    2260
    2261    2262    2263    2264    2270    2250    2251    2252    2259    2260
    2263    2264    2269    2251    2252    2253    2258    2259    2260    2263
    2264    2269    2270    2252    2253    2254    2257    2258    2259    2260
    2264    2265    2268    2269    2253    2254    2255    2257    2258    2259
    2265    2266    2267    2268    2254    2255    2256    2257    2258    2265
    2266    2268    2255    2256    2257    2258    2265    2266    2267    2272
    2273    2256    2257    2258    2265    2266    2267    2268    2271    2272
    2273    2274    2275    2291    2257    2258    2266    2267    2271    2272
    2273    2274    2275    2276    2290    2291    2258    2266    2267    2268
    2272    2273    2265    2267    2268    2260    2264    2269    2270    2261
    2262    2263    2269    2270    2262       0    2264       0    2266       0
    2268       0    2270       0    2272    2273    2275    2290    2291    2273
    2274    2275    2276    2278    2290    2291    2297    2274    2275    2276
    2277    2290    2291    2292    2275    2276    2291    2276    2277    2278
    2290    2291    2292    2293    2297    2277    2278    2279    2290    2291
    2292    2293    2278    2279    2280    2290    2291    2292    2293    2297
    2279    2280    2281    2289    2290    2291    2292    2293    2297    2280
    2281    2282    2288    2289    2290    2291    2293    2294    2296    2297
    2281    2282    2283    2286    2288    2289    2290    2294    2295    2296
    2282    2283    2284    2288    2289    2294    2295    2296    2283    2284
    2285    2286    2288    2289    2294    2295    2298    2284    2285    2286
    2287    2288    2289    2294    2295    2296    2298    2299    2285    2286
    2287    2288    2289    2295    2298    2299    2300    2318    2286    2288
    2298    2299    2287    2288    2289    2296    2298    2299    2300    2318
    2288    2289    2298    2299    2289    2295    2296    2298    2299    2294
    2296    2298    2291    2293    2297    2292    2297    2293       0    2295
       0       0       0    2299    2300    2301    2304    2318    2319    2331
    2300    2301    2302    2303    2304    2305    2318    2319    2331    2301
    2302    2303    2304    2318    2319    2320    2331    2333    2334    2302
    2303    2304    2305    2318    2319    2320    2332    2333    2334    2335
    2336    2352    2303    2304    2319    2320    2332    2333    2334    2335
    2336    2337    2351    2352    2304    2305    2306    2307    2318    2319
    2320    2331    2333    2334    2305    2306    2307    2308    2318    2320
    2321    2331    2306    2307    2308    2309    2318    2320    2321    2322
    2323    2331    2307    2308    2318    2321    2308    2309    2310    2318
    2321    2322    2323    2324    2325    2309    2310    2311    2317    2321
    2322    2323    2324    2325    2310    2311    2312    2315    2317    2321
    2322    2323    2324    2325    2326    2330    2311    2312    2313    2315
    2316    2317    2322    2323    2324    2325    2326    2327    2330    2312
    2313    2314    2315    2317    2324    2325    2326    2327    2330    2313
    2314    2315    2316    2317    2326    2327    2328    2314    2315    2316
    2317    2326    2327    2328    2329    2330    2315    2316    2317    2327
    2328    2316    2317    2327    2328    2329    2330    2317    2329    2330
    2324    2325    2326    2329    2330    2319    2320    2331       0       0
    2322    2323    2323    2324    2325    2324    2325    2325       0    2327
       0       0       0       0       0    2333    2334    2336    2351    2352
    2334    2335    2336    2337    2339    2351    2352    2358    2335    2336
    2337    2338    2351    2352    2353    2336    2337    2352    2337    2338
    2339    2351    2352    2353    2354    2358    2338    2339    2340    2351
    2352    2353    2354    2339    2340    2341    2351    2352    2353    2354
    2358    2340    2341    2342    2350    2351    2352    2353    2354    2358
    2341    2342    2343    2349    2350    2351    2352    2354    2355    2357
    2358    2342    2343    2344    2347    2349    2350    2351    2355    2356
    2357    2343    2344    2345    2349    2350    2355    2356    2357    2344
    2345    2346    2347    2349    2350    2355    2356    2359    2345    2346
    2347    2348    2349    2350    2355    2356    2357    2359    2360    2346
    2347    2348    2349    2350    2356    2359    2360    2361    2373    2347
    2349    2359    2360    2348    2349    2350    2357    2359    2360    2361
    2373    2349    2350    2359    2360    2350    2356    2357    2359    2360
    2355    2357    2359    2352    2354    2358    2353    2358    2354       0
    2356       0       0       0    2360    2361    2362    2372    2373    2374
    2381    2361    2362    2363    2372    2373    2374    2375    2380    2381
    2362    2363    2364    2372    2373    2374    2375    2381    2363    2364
    2365    2372    2373    2374    2375    2380    2364    2365    2366    2371
    2372    2373    2374    2375    2380    2381    2365    2366    2367    2370
    2371    2372    2373    2375    2376    2379    2380    2366    2367    2368
    2370    2371    2372    2376    2377    2378    2379    2367    2368    2369
    2370    2371    2376    2377    2379    2368    2369    2370    2371    2376
    2377    2378    2383    2384    2369    2370    2371    2376    2377    2378
    2379    2382    2383    2384    2385    2386    2402    2370    2371    2377
    2378    2382    2383    2384    2385    2386    2387    2401    2402    2371
    2377    2378    2379    2383    2384    2376    2378    2379    2373    2375
    2380    2381    2374    2380    2381    2375       0    2377       0    2379
       0    2381       0    2383    2384    2386    2401    2402    2384    2385
    2386    2387    2389    2401    2402    2408    2385    2386    2387    2388
    2401    2402    2403    2386    2387    2402    2387    2388    2389    2401
    2402    2403    2404    2408    2388    2389    2390    2401    2402    2403
    2404    2389    2390    2391    2401    2402    2403    2404    2408    2390
    2391    2392    2400    2401    2402    2403    2404    2408    2391    2392
    2393    2399    2400    2401    2402    2404    2405    2407    2408    2392
    2393    2394    2397    2399    2400    2401    2405    2406    2407    2393
    2394    2395    2399    2400    2405    2406    2407    2394    2395    2396
    2397    2399    2400    2405    2406    2409    2395    2396    2397    2398
    2399    2400    2405    2406    2407    2409    2410    2396    2397    2398
    2399    2400    2406    2409    2410    2411    2423    2397    2399    2409
    2410    2398    2399    2400    2407    2409    2410    2411    2423    2399
    2400    2409    2410    2400    2406    2407    2409    2410    2405    2407
    2409    2402    2404    2408    2403    2408    2404       0    2406       0
       0       0    2410    2411    2412    2422    2423    2424    2431    2411
    2412    2413    2422    2423    2424    2425    2430    2431    2412    2413
    2414    2422    2423    2424    2425    2431    2413    2414    2415    2422
    2423    2424    2425    2430    2414    2415    2416    2421    2422    2423
    2424    2425    2430    2431    2415    2416    2417    2420    2421    2422
    2423    2425    2426    2429    2430    2416    2417    2418    2420    2421
    2422    2426    2427    2428    2429    2417    2418    2419    2420    2421
    2426    2427    2429    2418    2419    2420    2421    2426    2427    2428
    2433    2434    2419    2420    2421    2426    2427    2428    2429    2432
    2433    2434    2435    2436    2452    2420    2421    2427    2428    2432
    2433    2434    2435    2436    2437    2451    2452    2421    2427    2428
    2429    2433    2434    2426    2428    2429    2423    2425    2430    2431
    2424    2430    2431    2425       0    2427       0    2429       0    2431
       0    2433    2434    2436    2451    2452    2434    2435    2436    2437
    2439    2451    2452    2458    2435    2436    2437    2438    2451    2452
    2453    2436    2437    2452    2437    2438    2439    2451    2452    2453
    2454    2458    2438    2439    2440    2451    2452    2453    2454    2439
    2440    2441    2451    2452    2453    2454    2458    2440    2441    2442
    2450    2451    2452    2453    2454    2458    2441    2442    2443    2449
    2450    2451    2452    2454    2455    2457    2458    2442    2443    2444
    2447    2449    2450    2451    2455    2456    2457    2443    2444    2445
    2449    2450    2455    2456    2457    2444    2445    2446    2447    2449
    2450    2455    2456    2459    2445    2446    2447    2448    2449    2450
    2455    2456    2457    2459    2460    2446    2447    2448    2449    2450
    2456    2459    2460    2461    2473    2447    2449    2459    2460    2448
    2449    2450    2457    2459    2460    2461    2473    2449    2450    2459
    2460    2450    2456    2457    2459    2460    2455    2457    2459    2452
    2454    2458    2453    2458    2454       0    2456       0       0       0
    2460    2461    2462    2472    2473    2474    2481    2461    2462    2463
    2472    2473    2474    2475    2480    2481    2462    2463    2464    2472
    2473    2474    2475    2481    2463    2464    2465    2472    2473    2474
    2475    2480    2464    2465    2466    2471    2472    2473    2474    2475
    2480    2481    2465    2466    2467    2470    2471    2472    2473    2475
    2476    2479    2480    2466    2467    2468    2470    2471    2472    2476
    2477    2478    2479    2467    2468    2469    2470    2471    2476    2477
    2479    2468    2469    2470    2471    2476    2477    2478    2483    2484
    2469    2470    2471    2476    2477    2478    2479    2482    2483    2484
    2485    2486    2502    2470    2471    2477    2478    2482    2483    2484
    2485    2486    2487    2501    2502    2471    2477    2478    2479    2483
    2484    2476    2478    2479    2473    2475    2480    2481    2474    2480
    2481    2475       0    2477       0    2479       0    2481       0    2483
    2484    2486    2501    2502    2484    2485    2486    2487    2489    2501
    2502    2508    2485    2486    2487    2488    2501    2502    2503    2486
    2487    2502    2487    2488    2489    2501    2502    2503    2504    2508
    2488    2489    2490    2501    2502    2503    2504    2489    2490    2491
    2501    2502    2503    2504    2508    2490    2491    2492    2500    2501
    2502    2503    2504    2508    2491    2492    2493    2499    2500    2501
    2502    2504    2505    2507    2508    2492    2493    2494    2497    2499
    2500    2501    2505    2506    2507    2493    2494    2495    2499    2500
    2505    2506    2507    2494    2495    2496    2497    2499    2500    2505
    2506    2509    2495    2496    2497    2498    2499    2500    2505    2506
    2507    2509    2510    2496    2497    2498    2499    2500    2506    2509
    2510    2511    2523    2497    2499    2509    2510    2498    2499    2500
    2507    2509    2510    2511    2523    2499    2500    2509    2510    2500
    2506    2507    2509    2510    2505    2507    2509    2502    2504    2508
    2503    2508    2504       0    2506       0       0       0    2510    2511
    2512    2522    2523    2524    2531    2511    2512    2513    2522    2523
    2524    2525    2530    2531    2512    2513    2514    2522    2523    2524
    2525    2531    2513    2514    2515    2522    2523    2524    2525    2530
    2514    2515    2516    2521    2522    2523    2524    2525    2530    2531
    2515    2516    2517    2520    2521    2522    2523    2525    2526    2529
    2530    2516    2517    2518    2520    2521    2522    2526    2527    2528
    2529    2517    2518    2519    2520    2521    2526    2527    2529    2518
    2519    2520    2521    2526    2527    2528    2533    2534    2519    2520
    2521    2526    2527    2528    2529    2532    2533    2534    2535    2536
    2552    2520    2521    2527    2528    2532    2533    2534    2535    2536
    2537    2551    2552    2521    2527    2528    2529    2533    2534    2526
    2528    2529    2523    2525    2530    2531    2524    2530    2531    2525
       0    2527       0    2529       0    2531       0    2533    2534    2536
    2551    2552    2534    2535    2536    2537    2539    2551    2552    2558
    2535    2536    2537    2538    2551    2552    2553    2536    2537    2552
    2537    2538    2539    2551    2552    2553    2554    2558    2538    2539
    2540    2551    2552    2553    2554    2539    2540    2541    2551    2552
    2553    2554    2558    2540    2541    2542    2550    2551    2552    2553
    2554    2558    2541    2542    2543    2549    2550    2551    2552    2554
    2555    2557    2558    2542    2543    2544    2547    2549    2550    2551
    2555    2556    2557    2543    2544    2545    2549    2550    2555    2556
    2557    2544    2545    2546    2547    2549    2550    2555    2556    2559
    2545    2546    2547    2548    2549    2550    2555    2556    2557    2559
    2560    2546    2547    2548    2549    2550    2556    2559    2560    2561
    2573    2547    2549    2559    2560    2548    2549    2550    2557    2559
    2560    2561    2573    2549    2550    2559    2560    2550    2556    2557
    2559    2560    2555    2557    2559    2552    2554    2558    2553    2558
    2554       0    2556       0       0       0    2560    2561    2562    2572
    2573    2574    2581    2561    2562    2563    2572    2573    2574    2575
    2580    2581    2562    2563    2564    2572    2573    2574    2575    2581
    2563    2564    2565    2572    2573    2574    2575    2580    2564    2565
    2566    2571    2572    2573    2574    2575    2580    2581    2565    2566
    2567    2570    2571    2572    2573    2575    2576    2579    2580    2566
    2567    2568    2570    2571    2572    2576    2577    2578    2579    2567
    2568    2569    2570    2571    2576    2577    2579    2568    2569    2570
    2571    2576    2577    2578    2583    2584    2569    2570    2571    2576
    2577    2578    2579    2582    2583    2584    2585    2586    2602    2570
    2571    2577    2578    2582    2583    2584    2585    2586    2587    2601
    2602    2571    2577    2578    2579    2583    2584    2576    2578    2579
    2573    2575    2580    2581    2574    2580    2581    2575       0    2577
       0    2579       0    2581       0    2583    2584    2586    2601    2602
    2584    2585    2586    2587    2589    2601    2602    2608    2585    2586
    2587    2588    2601    2602    2603    2586    2587    2602    2587    2588
    2589    2601    2602    2603    2604    2608    2588    2589    2590    2601
    2602    2603    2604    2589    2590    2591    2601    2602    2603    2604
    2608    2590    2591    2592    2600    2601    2602    2603    2604    2608
    2591    2592    2593    2599    2600    2601    2602    2604    2605    2607
    2608    2592    2593    2594    2597    2599    2600    2601    2605    2606
    2607    2593    2594    2595    2599    2600    2605    2606    2607    2594
    2595    2596    2597    2599    2600    2605    2606    2609    2595    2596
    2597    2598    2599    2600    2605    2606    2607    2609    2610    2596
    2597    2598    2599    2600    2606    2609    2610    2611    2629    2597
    2599    2609    2610    2598    2599    2600    2607    2609    2610    2611
    2629    2599    2600    2609    2610    2600    2606    2607    2609    2610
    2605    2607    2609    2602    2604    2608    2603    2608    2604       0
    2606       0       0       0    2610    2611    2612    2615    2629    2630
    2642    2611    2612    2613    2614    2615    2616    2629    2630    2642
    2612    2613    2614    2615    2629    2630    2631    2642    2644    2645
    2613    2614    2615    2616    2629    2630    2631    2643    2644    2645
    2646    2647    2663    2614    2615    2630    2631    2643    2644    2645
    2646    2647    2648    2662    2663    2615    2616    2617    2618    2629
    2630    2631    2642    2644    2645    2616    2617    2618    2619    2629
    2631    2632    2642    2617    2618    2619    2620    2629    2631    2632
    2633    2634    2642    2618    2619    2629    2632    2619    2620    2621
    2629    2632    2633    2634    2635    2636    2620    2621    2622    2628
    2632    2633    2634    2635    2636    2621    2622    2623    2626    2628
    2632    2633    2634    2635    2636    2637    2641    2622    2623    2624
    2626    2627    2628    2633    2634    2635    2636    2637    2638    2641
    2623    2624    2625    2626    2628    2635    2636    2637    2638    2641
    2624    2625    2626    2627    2628    2637    2638    2639    2625    2626
    2627    2628    2637    2638    2639    2640    2641    2626    2627    2628
    2638    2639    2627    2628    2638    2639    2640    2641    2628    2640
    2641    2635    2636    2637    2640    2641    2630    2631    2642       0
       0    2633    2634    2634    2635    2636    2635    2636    2636       0
    2638       0       0       0       0       0    2644    2645    2647    2662
    2663    2645    2646    2647    2648    2650    2662    2663    2669    2646
    2647    2648    2649    2662    2663    2664    2647    2648    2663    2648
    2649    2650    2662    2663    2664    2665    2669    2649    2650    2651
    2662    2663    2664    2665    2650    2651    2652    2662    2663    2664
    2665    2669    2651    2652    2653    2661    2662    2663    2664    2665
    2669    2652    2653    2654    2660    2661    2662    2663    2665    2666
    2668    2669    2653    2654    2655    2658    2660    2661    2662    2666
    2667    2668    2654    2655    2656    2660    2661    2666    2667    2668
    2655    2656    2657    2658    2660    2661    2666    2667    2670    2656
    2657    2658    2659    2660    2661    2666    2667    2668    2670    2671
    2657    2658    2659    2660    2661    2667    2670    2671    2672    2684
    2658    2660    2670    2671    2659    2660    2661    2668    2670    2671
    2672    2684    2660    2661    2670    2671    2661    2667    2668    2670
    2671    2666    2668    2670    2663    2665    2669    2664    2669    2665
       0    2667       0       0       0    2671    2672    2673    2683    2684
    2685    2694    2672    2673    2674    2683    2684    2685    2686    2693
    2694    2673    2674    2675    2683    2684    2685    2686    2694    2674
    2675    2676    2683    2684    2685    2686    2693    2675    2676    2677
    2682    2683    2684    2685    2686    2693    2694    2676    2677    2678
    2681    2682    2683    2684    2686    2687    2692    2693    2677    2678
    2679    2681    2682    2683    2687    2688    2691    2692    2678    2679
    2680    2681    2682    2687    2688    2692    2679    2680    2681    2682
    2687    2688    2689    2690    2691    2680    2681    2682    2687    2688
    2689    2690    2691    2692    2681    2682    2688    2689    2690    2691
    2682    2688    2689    2690    2691    2692    2687    2691    2692    2684
    2686    2693    2694    2685    2693    2694    2686       0    2688       0
    2690       0    2692       0    2694       0
%FLAG HBOND_ACOEF                                                               
%FORMAT(5E16.8)                                                                 

%FLAG HBOND_BCOEF                                                               
%FORMAT(5E16.8)                                                                 

%FLAG HBCUT                                                                     
%FORMAT(5E16.8)                                                                 

%FLAG AMBER_ATOM_TYPE                                                           
%FORMAT(20a4)                                                                   
nv  ca  ca  ca  ca  os  ca  ca  ca  ca  n   ca  ca  ca  ca  hn  hn  ha  ha  ha  
ha  ha  ha  ha  ha  o   c   c   o   ca  ca  ca  ca  os  ca  ca  ca  ca  c   o   
c   o   ca  ca  ca  ca  ha  ha  ha  ha  ha  ha  n   ca  ca  ca  n   ca  ca  c   
o   ns  c3  c3  ca  ca  ca  ca  oh  ca  oh  ca  ca  ha  ha  hn  h1  h1  hc  hc  
ha  ha  ho  ho  ha  ha  o   c   c   o   ca  ca  ca  ca  os  ca  ca  ca  ca  c   
o   c   o   ca  ca  ca  ca  ha  ha  ha  ha  ha  ha  n   ca  ca  ca  ca  os  ca  
ca  ca  ca  n   ca  ca  ca  ca  ha  ha  ha  ha  ha  ha  ha  ha  o   c   c   o   
ca  ca  ca  ca  os  ca  ca  ca  ca  c   o   c   o   ca  ca  ca  ca  ha  ha  ha  
ha  ha  ha  n   ca  ca  ca  ca  os  ca  ca  ca  ca  n   ca  ca  ca  ca  ha  ha  
ha  ha  ha  ha  ha  ha  o   c   c   o   ca  ca  ca  ca  os  ca  ca  ca  ca  c   
o   c   o   ca  ca  ca  ca  ha  ha  ha  ha  ha  ha  n   ca  ca  ca  ca  os  ca  
ca  ca  ca  n   ca  ca  ca  ca  ha  ha  ha  ha  ha  ha  ha  ha  o   c   c   o   
ca  ca  ca  ca  os  ca  ca  ca  ca  c   o   c   o   ca  ca  ca  ca  ha  ha  ha  
ha  ha  ha  n   ca  ca  ca  ca  os  ca  ca  ca  ca  n   ca  ca  ca  ca  ha  ha  
ha  ha  ha  ha  ha  ha  o   c   c   o   ca  ca  ca  ca  os  ca  ca  ca  ca  c   
o   c   o   ca  ca  ca  ca  ha  ha  ha  ha  ha  ha  n   ca  ca  ca  ca  os  ca  
ca  ca  ca  n   ca  ca  ca  ca  ha  ha  ha  ha  ha  ha  ha  ha  o   c   c   o   
ca  ca  ca  ca  os  ca  ca  ca  ca  c   o   c   o   ca  ca  ca  ca  ha  ha  ha  
ha  ha  ha  n   ca  ca  ca  n   ca  ca  c   o   ns  c3  c3  ca  ca  ca  ca  oh  
ca  oh  ca  ca  ha  ha  hn  h1  h1  hc  hc  ha  ha  ho  ho  ha  ha  o   c   c   
o   ca  ca  ca  ca  os  ca  ca  ca  ca  c   o   c   o   ca  ca  ca  ca  ha  ha  
ha  ha  ha  ha  n   ca  ca  ca  ca  os  ca  ca  ca  ca  nv  ca  ca  ca  ca  ha  
ha  ha  ha  hn  hn  ha  ha  ha  ha  nv  ca  ca  ca  ca  os  ca  ca  ca  ca  n   
ca  ca  ca  ca  hn  hn  ha  ha  ha  ha  ha  ha  ha  ha  o   c   c   o   ca  ca  
ca  ca  os  ca  ca  ca  ca  c   o   c   o   ca  ca  ca  ca  ha  ha  ha  ha  ha  
ha  n   ca  ca  ca  n   ca  ca  c   o   ns  c3  c3  ca  ca  ca  ca  oh  ca  oh  
ca  ca  ha  ha  hn  h1  h1  hc  hc  ha  ha  ho  ho  ha  ha  o   c   c   o   ca  
ca  ca  ca  os  ca  ca  ca  ca  c   o   c   o   ca  ca  ca  ca  ha  ha  ha  ha  
ha  ha  n   ca  ca  ca  ca  os  ca  ca  ca  ca  n   ca  ca  ca  ca  ha  ha  ha  
ha  ha  ha  ha  ha  o   c   c   o   ca  ca  ca  ca  os  ca  ca  ca  ca  c   o   
c   o   ca  ca  ca  ca  ha  ha  ha  ha  ha  ha  n   ca  ca  ca  ca  os  ca  ca  
ca  ca  n   ca  ca  ca  ca  ha  ha  ha  ha  ha  ha  ha  ha  o   c   c   o   ca  
ca  ca  ca  os  ca  ca  ca  ca  c   o   c   o   ca  ca  ca  ca  ha  ha  ha  ha  
ha  ha  n   ca  ca  ca  ca  os  ca  ca  ca  ca  n   ca  ca  ca  ca  ha  ha  ha  
ha  ha  ha  ha  ha  o   c   c   o   ca  ca  ca  ca  os  ca  ca  ca  ca  c   o   
c   o   ca  ca  ca  ca  ha  ha  ha  ha  ha  ha  n   ca  ca  ca  ca  os  ca  ca  
ca  ca  n   ca  ca  ca  ca  ha  ha  ha  ha  ha  ha  ha  ha  o   c   c   o   ca  
ca  ca  ca  os  ca  ca  ca  ca  c   o   c   o   ca  ca  ca  ca  ha  ha  ha  ha  
ha  ha  n   ca  ca  ca  ca  os  ca  ca  ca  ca  n   ca  ca  ca  ca  ha  ha  ha  
ha  ha  ha  ha  ha  o   c   c   o   ca  ca  ca  ca  os  ca  ca  ca  ca  c   o   
c   o   ca  ca  ca  ca  ha  ha  ha  ha  ha  ha  n   ca  ca  ca  n   ca  ca  c   
o   ns  c3  c3  ca  ca  ca  ca  oh  ca  oh  ca  ca  ha  ha  hn  h1  h1  hc  hc  
ha  ha  ho  ho  ha  ha  o   c   c   o   ca  ca  ca  ca  os  ca  ca  ca  ca  c   
o   c   o   ca  ca  ca  ca  ha  ha  ha  ha  ha  ha  n   ca  ca  ca  ca  os  ca  
ca  ca  ca  nv  ca  ca  ca  ca  ha  ha  ha  ha  hn  hn  ha  ha  ha  ha  nv  ca  
ca  ca  ca  os  ca  ca  ca  ca  n   ca  ca  ca  ca  hn  hn  ha  ha  ha  ha  ha  
ha  ha  ha  o   c   c   o   ca  ca  ca  ca  os  ca  ca  ca  ca  c   o   c   o   
ca  ca  ca  ca  ha  ha  ha  ha  ha  ha  n   ca  ca  ca  n   ca  ca  c   o   ns  
c3  c3  ca  ca  ca  ca  oh  ca  oh  ca  ca  ha  ha  hn  h1  h1  hc  hc  ha  ha  
ho  ho  ha  ha  o   c   c   o   ca  ca  ca  ca  os  ca  ca  ca  ca  c   o   c   
o   ca  ca  ca  ca  ha  ha  ha  ha  ha  ha  n   ca  ca  ca  ca  os  ca  ca  ca  
ca  n   ca  ca  ca  ca  ha  ha  ha  ha  ha  ha  ha  ha  o   c   c   o   ca  ca  
ca  ca  os  ca  ca  ca  ca  c   o   c   o   ca  ca  ca  ca  ha  ha  ha  ha  ha  
ha  n   ca  ca  ca  ca  os  ca  ca  ca  ca  n   ca  ca  ca  ca  ha  ha  ha  ha  
ha  ha  ha  ha  o   c   c   o   ca  ca  ca  ca  os  ca  ca  ca  ca  c   o   c   
o   ca  ca  ca  ca  ha  ha  ha  ha  ha  ha  n   ca  ca  ca  ca  os  ca  ca  ca  
ca  n   ca  ca  ca  ca  ha  ha  ha  ha  ha  ha  ha  ha  o   c   c   o   ca  ca  
ca  ca  os  ca  ca  ca  ca  c   o   c   o   ca  ca  ca  ca  ha  ha  ha  ha  ha  
ha  n   ca  ca  ca  ca  os  ca  ca  ca  ca  n   ca  ca  ca  ca  ha  ha  ha  ha  
ha  ha  ha  ha  o   c   c   o   ca  ca  ca  ca  os  ca  ca  ca  ca  c   o   c   
o   ca  ca  ca  ca  ha  ha  ha  ha  ha  ha  n   ca  ca  ca  ca  os  ca  ca  ca  
ca  n   ca  ca  ca  ca  ha  ha  ha  ha  ha  ha  ha  ha  o   c   c   o   ca  ca  
ca  ca  os  ca  ca  ca  ca  c   o   c   o   ca  ca  ca  ca  ha  ha  ha  ha  ha  
ha  n   ca  ca  ca  n   ca  ca  c   o   ns  c3  c3  ca  ca  ca  ca  oh  ca  oh  
ca  ca  ha  ha  hn  h1  h1  hc  hc  ha  ha  ho  ho  ha  ha  o   c   c   o   ca  
ca  ca  ca  os  ca  ca  ca  ca  c   o   c   o   ca  ca  ca  ca  ha  ha  ha  ha  
ha  ha  n   ca  ca  ca  ca  os  ca  ca  ca  ca  nv  ca  ca  ca  ca  ha  ha  ha  
ha  hn  hn  ha  ha  ha  ha  nv  ca  ca  ca  ca  os  ca  ca  ca  ca  n   ca  ca  
ca  ca  hn  hn  ha  ha  ha  ha  ha  ha  ha  ha  o   c   c   o   ca  ca  ca  ca  
os  ca  ca  ca  ca  c   o   c   o   ca  ca  ca  ca  ha  ha  ha  ha  ha  ha  n   
ca  ca  ca  n   ca  ca  c   o   ns  c3  c3  ca  ca  ca  ca  oh  ca  oh  ca  ca  
ha  ha  hn  h1  h1  hc  hc  ha  ha  ho  ho  ha  ha  o   c   c   o   ca  ca  ca  
ca  os  ca  ca  ca  ca  c   o   c   o   ca  ca  ca  ca  ha  ha  ha  ha  ha  ha  
n   ca  ca  ca  ca  os  ca  ca  ca  ca  n   ca  ca  ca  ca  ha  ha  ha  ha  ha  
ha  ha  ha  o   c   c   o   ca  ca  ca  ca  os  ca  ca  ca  ca  c   o   c   o   
ca  ca  ca  ca  ha  ha  ha  ha  ha  ha  n   ca  ca  ca  ca  os  ca  ca  ca  ca  
n   ca  ca  ca  ca  ha  ha  ha  ha  ha  ha  ha  ha  o   c   c   o   ca  ca  ca  
ca  os  ca  ca  ca  ca  c   o   c   o   ca  ca  ca  ca  ha  ha  ha  ha  ha  ha  
n   ca  ca  ca  ca  os  ca  ca  ca  ca  n   ca  ca  ca  ca  ha  ha  ha  ha  ha  
ha  ha  ha  o   c   c   o   ca  ca  ca  ca  os  ca  ca  ca  ca  c   o   c   o   
ca  ca  ca  ca  ha  ha  ha  ha  ha  ha  n   ca  ca  ca  ca  os  ca  ca  ca  ca  
n   ca  ca  ca  ca  ha  ha  ha  ha  ha  ha  ha  ha  o   c   c   o   ca  ca  ca  
ca  os  ca  ca  ca  ca  c   o   c   o   ca  ca  ca  ca  ha  ha  ha  ha  ha  ha  
n   ca  ca  ca  ca  os  ca  ca  ca  ca  n   ca  ca  ca  ca  ha  ha  ha  ha  ha  
ha  ha  ha  o   c   c   o   ca  ca  ca  ca  os  ca  ca  ca  ca  c   o   c   o   
ca  ca  ca  ca  ha  ha  ha  ha  ha  ha  n   ca  ca  ca  n   ca  ca  c   o   ns  
c3  c3  ca  ca  ca  ca  oh  ca  oh  ca  ca  ha  ha  hn  h1  h1  hc  hc  ha  ha  
ho  ho  ha  ha  o   c   c   o   ca  ca  ca  ca  os  ca  ca  ca  ca  c   o   c   
o   ca  ca  ca  ca  ha  ha  ha  ha  ha  ha  n   ca  ca  ca  ca  os  ca  ca  ca  
ca  nv  ca  ca  ca  ca  ha  ha  ha  ha  hn  hn  ha  ha  ha  ha  nv  ca  ca  ca  
ca  os  ca  ca  ca  ca  n   ca  ca  ca  ca  hn  hn  ha  ha  ha  ha  ha  ha  ha  
ha  o   c   c   o   ca  ca  ca  ca  os  ca  ca  ca  ca  c   o   c   o   ca  ca  
ca  ca  ha  ha  ha  ha  ha  ha  n   ca  ca  ca  n   ca  ca  c   o   ns  c3  c3  
ca  ca  ca  ca  oh  ca  oh  ca  ca  ha  ha  hn  h1  h1  hc  hc  ha  ha  ho  ho  
ha  ha  o   c   c   o   ca  ca  ca  ca  os  ca  ca  ca  ca  c   o   c   o   ca  
ca  ca  ca  ha  ha  ha  ha  ha  ha  n   ca  ca  ca  ca  os  ca  ca  ca  ca  n   
ca  ca  ca  ca  ha  ha  ha  ha  ha  ha  ha  ha  o   c   c   o   ca  ca  ca  ca  
os  ca  ca  ca  ca  c   o   c   o   ca  ca  ca  ca  ha  ha  ha  ha  ha  ha  n   
ca  ca  ca  ca  os  ca  ca  ca  ca  n   ca  ca  ca  ca  ha  ha  ha  ha  ha  ha  
ha  ha  o   c   c   o   ca  ca  ca  ca  os  ca  ca  ca  ca  c   o   c   o   ca  
ca  ca  ca  ha  ha  ha  ha  ha  ha  n   ca  ca  ca  ca  os  ca  ca  ca  ca  n   
ca  ca  ca  ca  ha  ha  ha  ha  ha  ha  ha  ha  o   c   c   o   ca  ca  ca  ca  
os  ca  ca  ca  ca  c   o   c   o   ca  ca  ca  ca  ha  ha  ha  ha  ha  ha  n   
ca  ca  ca  ca  os  ca  ca  ca  ca  n   ca  ca  ca  ca  ha  ha  ha  ha  ha  ha  
ha  ha  o   c   c   o   ca  ca  ca  ca  os  ca  ca  ca  ca  c   o   c   o   ca  
ca  ca  ca  ha  ha  ha  ha  ha  ha  n   ca  ca  ca  ca  os  ca  ca  ca  ca  n   
ca  ca  ca  ca  ha  ha  ha  ha  ha  ha  ha  ha  o   c   c   o   ca  ca  ca  ca  
os  ca  ca  ca  ca  c   o   c   o   ca  ca  ca  ca  ha  ha  ha  ha  ha  ha  n   
ca  ca  ca  n   ca  ca  c   o   ns  c3  c3  ca  ca  ca  ca  oh  ca  oh  ca  ca  
ha  ha  hn  h1  h1  hc  hc  ha  ha  ho  ho  ha  ha  o   c   c   o   ca  ca  ca  
ca  os  ca  ca  ca  ca  c   o   c   o   ca  ca  ca  ca  ha  ha  ha  ha  ha  ha  
n   ca  ca  ca  ca  os  ca  ca  ca  ca  nv  ca  ca  ca  ca  ha  ha  ha  ha  hn  
hn  ha  ha  ha  ha  nv  ca  ca  ca  ca  os  ca  ca  ca  ca  n   ca  ca  ca  ca  
hn  hn  ha  ha  ha  ha  ha  ha  ha  ha  o   c   c   o   ca  ca  ca  ca  os  ca  
ca  ca  ca  c   o   c   o   ca  ca  ca  ca  ha  ha  ha  ha  ha  ha  n   ca  ca  
ca  n   ca  ca  c   o   ns  c3  c3  ca  ca  ca  ca  oh  ca  oh  ca  ca  ha  ha  
hn  h1  h1  hc  hc  ha  ha  ho  ho  ha  ha  o   c   c   o   ca  ca  ca  ca  os  
ca  ca  ca  ca  c   o   c   o   ca  ca  ca  ca  ha  ha  ha  ha  ha  ha  n   ca  
ca  ca  ca  os  ca  ca  ca  ca  n   ca  ca  ca  ca  ha  ha  ha  ha  ha  ha  ha  
ha  o   c   c   o   ca  ca  ca  ca  os  ca  ca  ca  ca  c   o   c   o   ca  ca  
ca  ca  ha  ha  ha  ha  ha  ha  n   ca  ca  ca  ca  os  ca  ca  ca  ca  n   ca  
ca  ca  ca  ha  ha  ha  ha  ha  ha  ha  ha  o   c   c   o   ca  ca  ca  ca  os  
ca  ca  ca  ca  c   o   c   o   ca  ca  ca  ca  ha  ha  ha  ha  ha  ha  n   ca  
ca  ca  ca  os  ca  ca  ca  ca  n   ca  ca  ca  ca  ha  ha  ha  ha  ha  ha  ha  
ha  o   c   c   o   ca  ca  ca  ca  os  ca  ca  ca  ca  c   o   c   o   ca  ca  
ca  ca  ha  ha  ha  ha  ha  ha  n   ca  ca  ca  ca  os  ca  ca  ca  ca  n   ca  
ca  ca  ca  ha  ha  ha  ha  ha  ha  ha  ha  o   c   c   o   ca  ca  ca  ca  os  
ca  ca  ca  ca  c   o   c   o   ca  ca  ca  ca  ha  ha  ha  ha  ha  ha  n   ca  
ca  ca  ca  os  ca  ca  ca  ca  n   ca  ca  ca  ca  ha  ha  ha  ha  ha  ha  ha  
ha  o   c   c   o   ca  ca  ca  ca  os  ca  ca  ca  ca  c   o   c   o   ca  ca  
ca  ca  ha  ha  ha  ha  ha  ha  n   ca  ca  ca  n   ca  ca  c   o   ns  c3  c3  
ca  ca  ca  ca  oh  ca  oh  ca  ca  ha  ha  hn  h1  h1  hc  hc  ha  ha  ho  ho  
ha  ha  o   c   c   o   ca  ca  ca  ca  os  ca  ca  ca  ca  c   o   c   o   ca  
ca  ca  ca  ha  ha  ha  ha  ha  ha  n   ca  ca  ca  ca  os  ca  ca  ca  ca  nv  
ca  ca  ca  ca  ha  ha  ha  ha  hn  hn  ha  ha  ha  ha  
%FLAG TREE_CHAIN_CLASSIFICATION                                                 
%FORMAT(20a4)                                                                   
BLA BLA BLA BLA BLA BLA BLA BLA BLA BLA BLA BLA BLA BLA BLA BLA BLA BLA BLA BLA 
BLA BLA BLA BLA BLA BLA BLA BLA BLA BLA BLA BLA BLA BLA BLA BLA BLA BLA BLA BLA 
BLA BLA BLA BLA BLA BLA BLA BLA BLA BLA BLA BLA BLA BLA BLA BLA BLA BLA BLA BLA 
BLA BLA BLA BLA BLA BLA BLA BLA BLA BLA BLA BLA BLA BLA BLA BLA BLA BLA BLA BLA 
BLA BLA BLA BLA BLA BLA BLA BLA BLA BLA BLA BLA BLA BLA BLA BLA BLA BLA BLA BLA 
BLA BLA BLA BLA BLA BLA BLA BLA BLA BLA BLA BLA BLA BLA BLA BLA BLA BLA BLA BLA 
BLA BLA BLA BLA BLA BLA BLA BLA BLA BLA BLA BLA BLA BLA BLA BLA BLA BLA BLA BLA 
BLA BLA BLA BLA BLA BLA BLA BLA BLA BLA BLA BLA BLA BLA BLA BLA BLA BLA BLA BLA 
BLA BLA BLA BLA BLA BLA BLA BLA BLA BLA BLA BLA BLA BLA BLA BLA BLA BLA BLA BLA 
BLA BLA BLA BLA BLA BLA BLA BLA BLA BLA BLA BLA BLA BLA BLA BLA BLA BLA BLA BLA 
BLA BLA BLA BLA BLA BLA BLA BLA BLA BLA BLA BLA BLA BLA BLA BLA BLA BLA BLA BLA 
BLA BLA BLA BLA BLA BLA BLA BLA BLA BLA BLA BLA BLA BLA BLA BLA BLA BLA BLA BLA 
BLA BLA BLA BLA BLA BLA BLA BLA BLA BLA BLA BLA BLA BLA BLA BLA BLA BLA BLA BLA 
BLA BLA BLA BLA BLA BLA BLA BLA BLA BLA BLA BLA BLA BLA BLA BLA BLA BLA BLA BLA 
BLA BLA BLA BLA BLA BLA BLA BLA BLA BLA BLA BLA BLA BLA BLA BLA BLA BLA BLA BLA 
BLA BLA BLA BLA BLA BLA BLA BLA BLA BLA BLA BLA BLA BLA BLA BLA BLA BLA BLA BLA 
BLA BLA BLA BLA BLA BLA BLA BLA BLA BLA BLA BLA BLA BLA BLA BLA BLA BLA BLA BLA 
BLA BLA BLA BLA BLA BLA BLA BLA BLA BLA BLA BLA BLA BLA BLA BLA BLA BLA BLA BLA 
BLA BLA BLA BLA BLA BLA BLA BLA BLA BLA BLA BLA BLA BLA BLA BLA BLA BLA BLA BLA 
BLA BLA BLA BLA BLA BLA BLA BLA BLA BLA BLA BLA BLA BLA BLA BLA BLA BLA BLA BLA 
BLA BLA BLA BLA BLA BLA BLA BLA BLA BLA BLA BLA BLA BLA BLA BLA BLA BLA BLA BLA 
BLA BLA BLA BLA BLA BLA BLA BLA BLA BLA BLA BLA BLA BLA BLA BLA BLA BLA BLA BLA 
BLA BLA BLA BLA BLA BLA BLA BLA BLA BLA BLA BLA BLA BLA BLA BLA BLA BLA BLA BLA 
BLA BLA BLA BLA BLA BLA BLA BLA BLA BLA BLA BLA BLA BLA BLA BLA BLA BLA BLA BLA 
BLA BLA BLA BLA BLA BLA BLA BLA BLA BLA BLA BLA BLA BLA BLA BLA BLA BLA BLA BLA 
BLA BLA BLA BLA BLA BLA BLA BLA BLA BLA BLA BLA BLA BLA BLA BLA BLA BLA BLA BLA 
BLA BLA BLA BLA BLA BLA BLA BLA BLA BLA BLA BLA BLA BLA BLA BLA BLA BLA BLA BLA 
BLA BLA BLA BLA BLA BLA BLA BLA BLA BLA BLA BLA BLA BLA BLA BLA BLA BLA BLA BLA 
BLA BLA BLA BLA BLA BLA BLA BLA BLA BLA BLA BLA BLA BLA BLA BLA BLA BLA BLA BLA 
BLA BLA BLA BLA BLA BLA BLA BLA BLA BLA BLA BLA BLA BLA BLA BLA BLA BLA BLA BLA 
BLA BLA BLA BLA BLA BLA BLA BLA BLA BLA BLA BLA BLA BLA BLA BLA BLA BLA BLA BLA 
BLA BLA BLA BLA BLA BLA BLA BLA BLA BLA BLA BLA BLA BLA BLA BLA BLA BLA BLA BLA 
BLA BLA BLA BLA BLA BLA BLA BLA BLA BLA BLA BLA BLA BLA BLA BLA BLA BLA BLA BLA 
BLA BLA BLA BLA BLA BLA BLA BLA BLA BLA BLA BLA BLA BLA BLA BLA BLA BLA BLA BLA 
BLA BLA BLA BLA BLA BLA BLA BLA BLA BLA BLA BLA BLA BLA BLA BLA BLA BLA BLA BLA 
BLA BLA BLA BLA BLA BLA BLA BLA BLA BLA BLA BLA BLA BLA BLA BLA BLA BLA BLA BLA 
BLA BLA BLA BLA BLA BLA BLA BLA BLA BLA BLA BLA BLA BLA BLA BLA BLA BLA BLA BLA 
BLA BLA BLA BLA BLA BLA BLA BLA BLA BLA BLA BLA BLA BLA BLA BLA BLA BLA BLA BLA 
BLA BLA BLA BLA BLA BLA BLA BLA BLA BLA BLA BLA BLA BLA BLA BLA BLA BLA BLA BLA 
BLA BLA BLA BLA BLA BLA BLA BLA BLA BLA BLA BLA BLA BLA BLA BLA BLA BLA BLA BLA 
BLA BLA BLA BLA BLA BLA BLA BLA BLA BLA BLA BLA BLA BLA BLA BLA BLA BLA BLA BLA 
BLA BLA BLA BLA BLA BLA BLA BLA BLA BLA BLA BLA BLA BLA BLA BLA BLA BLA BLA BLA 
BLA BLA BLA BLA BLA BLA BLA BLA BLA BLA BLA BLA BLA BLA BLA BLA BLA BLA BLA BLA 
BLA BLA BLA BLA BLA BLA BLA BLA BLA BLA BLA BLA BLA BLA BLA BLA BLA BLA BLA BLA 
BLA BLA BLA BLA BLA BLA BLA BLA BLA BLA BLA BLA BLA BLA BLA BLA BLA BLA BLA BLA 
BLA BLA BLA BLA BLA BLA BLA BLA BLA BLA BLA BLA BLA BLA BLA BLA BLA BLA BLA BLA 
BLA BLA BLA BLA BLA BLA BLA BLA BLA BLA BLA BLA BLA BLA BLA BLA BLA BLA BLA BLA 
BLA BLA BLA BLA BLA BLA BLA BLA BLA BLA BLA BLA BLA BLA BLA BLA BLA BLA BLA BLA 
BLA BLA BLA BLA BLA BLA BLA BLA BLA BLA BLA BLA BLA BLA BLA BLA BLA BLA BLA BLA 
BLA BLA BLA BLA BLA BLA BLA BLA BLA BLA BLA BLA BLA BLA BLA BLA BLA BLA BLA BLA 
BLA BLA BLA BLA BLA BLA BLA BLA BLA BLA BLA BLA BLA BLA BLA BLA BLA BLA BLA BLA 
BLA BLA BLA BLA BLA BLA BLA BLA BLA BLA BLA BLA BLA BLA BLA BLA BLA BLA BLA BLA 
BLA BLA BLA BLA BLA BLA BLA BLA BLA BLA BLA BLA BLA BLA BLA BLA BLA BLA BLA BLA 
BLA BLA BLA BLA BLA BLA BLA BLA BLA BLA BLA BLA BLA BLA BLA BLA BLA BLA BLA BLA 
BLA BLA BLA BLA BLA BLA BLA BLA BLA BLA BLA BLA BLA BLA BLA BLA BLA BLA BLA BLA 
BLA BLA BLA BLA BLA BLA BLA BLA BLA BLA BLA BLA BLA BLA BLA BLA BLA BLA BLA BLA 
BLA BLA BLA BLA BLA BLA BLA BLA BLA BLA BLA BLA BLA BLA BLA BLA BLA BLA BLA BLA 
BLA BLA BLA BLA BLA BLA BLA BLA BLA BLA BLA BLA BLA BLA BLA BLA BLA BLA BLA BLA 
BLA BLA BLA BLA BLA BLA BLA BLA BLA BLA BLA BLA BLA BLA BLA BLA BLA BLA BLA BLA 
BLA BLA BLA BLA BLA BLA BLA BLA BLA BLA BLA BLA BLA BLA BLA BLA BLA BLA BLA BLA 
BLA BLA BLA BLA BLA BLA BLA BLA BLA BLA BLA BLA BLA BLA BLA BLA BLA BLA BLA BLA 
BLA BLA BLA BLA BLA BLA BLA BLA BLA BLA BLA BLA BLA BLA BLA BLA BLA BLA BLA BLA 
BLA BLA BLA BLA BLA BLA BLA BLA BLA BLA BLA BLA BLA BLA BLA BLA BLA BLA BLA BLA 
BLA BLA BLA BLA BLA BLA BLA BLA BLA BLA BLA BLA BLA BLA BLA BLA BLA BLA BLA BLA 
BLA BLA BLA BLA BLA BLA BLA BLA BLA BLA BLA BLA BLA BLA BLA BLA BLA BLA BLA BLA 
BLA BLA BLA BLA BLA BLA BLA BLA BLA BLA BLA BLA BLA BLA BLA BLA BLA BLA BLA BLA 
BLA BLA BLA BLA BLA BLA BLA BLA BLA BLA BLA BLA BLA BLA BLA BLA BLA BLA BLA BLA 
BLA BLA BLA BLA BLA BLA BLA BLA BLA BLA BLA BLA BLA BLA BLA BLA BLA BLA BLA BLA 
BLA BLA BLA BLA BLA BLA BLA BLA BLA BLA BLA BLA BLA BLA BLA BLA BLA BLA BLA BLA 
BLA BLA BLA BLA BLA BLA BLA BLA BLA BLA BLA BLA BLA BLA BLA BLA BLA BLA BLA BLA 
BLA BLA BLA BLA BLA BLA BLA BLA BLA BLA BLA BLA BLA BLA BLA BLA BLA BLA BLA BLA 
BLA BLA BLA BLA BLA BLA BLA BLA BLA BLA BLA BLA BLA BLA BLA BLA BLA BLA BLA BLA 
BLA BLA BLA BLA BLA BLA BLA BLA BLA BLA BLA BLA BLA BLA BLA BLA BLA BLA BLA BLA 
BLA BLA BLA BLA BLA BLA BLA BLA BLA BLA BLA BLA BLA BLA BLA BLA BLA BLA BLA BLA 
BLA BLA BLA BLA BLA BLA BLA BLA BLA BLA BLA BLA BLA BLA BLA BLA BLA BLA BLA BLA 
BLA BLA BLA BLA BLA BLA BLA BLA BLA BLA BLA BLA BLA BLA BLA BLA BLA BLA BLA BLA 
BLA BLA BLA BLA BLA BLA BLA BLA BLA BLA BLA BLA BLA BLA BLA BLA BLA BLA BLA BLA 
BLA BLA BLA BLA BLA BLA BLA BLA BLA BLA BLA BLA BLA BLA BLA BLA BLA BLA BLA BLA 
BLA BLA BLA BLA BLA BLA BLA BLA BLA BLA BLA BLA BLA BLA BLA BLA BLA BLA BLA BLA 
BLA BLA BLA BLA BLA BLA BLA BLA BLA BLA BLA BLA BLA BLA BLA BLA BLA BLA BLA BLA 
BLA BLA BLA BLA BLA BLA BLA BLA BLA BLA BLA BLA BLA BLA BLA BLA BLA BLA BLA BLA 
BLA BLA BLA BLA BLA BLA BLA BLA BLA BLA BLA BLA BLA BLA BLA BLA BLA BLA BLA BLA 
BLA BLA BLA BLA BLA BLA BLA BLA BLA BLA BLA BLA BLA BLA BLA BLA BLA BLA BLA BLA 
BLA BLA BLA BLA BLA BLA BLA BLA BLA BLA BLA BLA BLA BLA BLA BLA BLA BLA BLA BLA 
BLA BLA BLA BLA BLA BLA BLA BLA BLA BLA BLA BLA BLA BLA BLA BLA BLA BLA BLA BLA 
BLA BLA BLA BLA BLA BLA BLA BLA BLA BLA BLA BLA BLA BLA BLA BLA BLA BLA BLA BLA 
BLA BLA BLA BLA BLA BLA BLA BLA BLA BLA BLA BLA BLA BLA BLA BLA BLA BLA BLA BLA 
BLA BLA BLA BLA BLA BLA BLA BLA BLA BLA BLA BLA BLA BLA BLA BLA BLA BLA BLA BLA 
BLA BLA BLA BLA BLA BLA BLA BLA BLA BLA BLA BLA BLA BLA BLA BLA BLA BLA BLA BLA 
BLA BLA BLA BLA BLA BLA BLA BLA BLA BLA BLA BLA BLA BLA BLA BLA BLA BLA BLA BLA 
BLA BLA BLA BLA BLA BLA BLA BLA BLA BLA BLA BLA BLA BLA BLA BLA BLA BLA BLA BLA 
BLA BLA BLA BLA BLA BLA BLA BLA BLA BLA BLA BLA BLA BLA BLA BLA BLA BLA BLA BLA 
BLA BLA BLA BLA BLA BLA BLA BLA BLA BLA BLA BLA BLA BLA BLA BLA BLA BLA BLA BLA 
BLA BLA BLA BLA BLA BLA BLA BLA BLA BLA BLA BLA BLA BLA BLA BLA BLA BLA BLA BLA 
BLA BLA BLA BLA BLA BLA BLA BLA BLA BLA BLA BLA BLA BLA BLA BLA BLA BLA BLA BLA 
BLA BLA BLA BLA BLA BLA BLA BLA BLA BLA BLA BLA BLA BLA BLA BLA BLA BLA BLA BLA 
BLA BLA BLA BLA BLA BLA BLA BLA BLA BLA BLA BLA BLA BLA BLA BLA BLA BLA BLA BLA 
BLA BLA BLA BLA BLA BLA BLA BLA BLA BLA BLA BLA BLA BLA BLA BLA BLA BLA BLA BLA 
BLA BLA BLA BLA BLA BLA BLA BLA BLA BLA BLA BLA BLA BLA BLA BLA BLA BLA BLA BLA 
BLA BLA BLA BLA BLA BLA BLA BLA BLA BLA BLA BLA BLA BLA BLA BLA BLA BLA BLA BLA 
BLA BLA BLA BLA BLA BLA BLA BLA BLA BLA BLA BLA BLA BLA BLA BLA BLA BLA BLA BLA 
BLA BLA BLA BLA BLA BLA BLA BLA BLA BLA BLA BLA BLA BLA BLA BLA BLA BLA BLA BLA 
BLA BLA BLA BLA BLA BLA BLA BLA BLA BLA BLA BLA BLA BLA BLA BLA BLA BLA BLA BLA 
BLA BLA BLA BLA BLA BLA BLA BLA BLA BLA BLA BLA BLA BLA BLA BLA BLA BLA BLA BLA 
BLA BLA BLA BLA BLA BLA BLA BLA BLA BLA BLA BLA BLA BLA BLA BLA BLA BLA BLA BLA 
BLA BLA BLA BLA BLA BLA BLA BLA BLA BLA BLA BLA BLA BLA BLA BLA BLA BLA BLA BLA 
BLA BLA BLA BLA BLA BLA BLA BLA BLA BLA BLA BLA BLA BLA BLA BLA BLA BLA BLA BLA 
BLA BLA BLA BLA BLA BLA BLA BLA BLA BLA BLA BLA BLA BLA BLA BLA BLA BLA BLA BLA 
BLA BLA BLA BLA BLA BLA BLA BLA BLA BLA BLA BLA BLA BLA BLA BLA BLA BLA BLA BLA 
BLA BLA BLA BLA BLA BLA BLA BLA BLA BLA BLA BLA BLA BLA BLA BLA BLA BLA BLA BLA 
BLA BLA BLA BLA BLA BLA BLA BLA BLA BLA BLA BLA BLA BLA BLA BLA BLA BLA BLA BLA 
BLA BLA BLA BLA BLA BLA BLA BLA BLA BLA BLA BLA BLA BLA BLA BLA BLA BLA BLA BLA 
BLA BLA BLA BLA BLA BLA BLA BLA BLA BLA BLA BLA BLA BLA BLA BLA BLA BLA BLA BLA 
BLA BLA BLA BLA BLA BLA BLA BLA BLA BLA BLA BLA BLA BLA BLA BLA BLA BLA BLA BLA 
BLA BLA BLA BLA BLA BLA BLA BLA BLA BLA BLA BLA BLA BLA BLA BLA BLA BLA BLA BLA 
BLA BLA BLA BLA BLA BLA BLA BLA BLA BLA BLA BLA BLA BLA BLA BLA BLA BLA BLA BLA 
BLA BLA BLA BLA BLA BLA BLA BLA BLA BLA BLA BLA BLA BLA BLA BLA BLA BLA BLA BLA 
BLA BLA BLA BLA BLA BLA BLA BLA BLA BLA BLA BLA BLA BLA BLA BLA BLA BLA BLA BLA 
BLA BLA BLA BLA BLA BLA BLA BLA BLA BLA BLA BLA BLA BLA BLA BLA BLA BLA BLA BLA 
BLA BLA BLA BLA BLA BLA BLA BLA BLA BLA BLA BLA BLA BLA BLA BLA BLA BLA BLA BLA 
BLA BLA BLA BLA BLA BLA BLA BLA BLA BLA BLA BLA BLA BLA BLA BLA BLA BLA BLA BLA 
BLA BLA BLA BLA BLA BLA BLA BLA BLA BLA BLA BLA BLA BLA BLA BLA BLA BLA BLA BLA 
BLA BLA BLA BLA BLA BLA BLA BLA BLA BLA BLA BLA BLA BLA BLA BLA BLA BLA BLA BLA 
BLA BLA BLA BLA BLA BLA BLA BLA BLA BLA BLA BLA BLA BLA BLA BLA BLA BLA BLA BLA 
BLA BLA BLA BLA BLA BLA BLA BLA BLA BLA BLA BLA BLA BLA BLA BLA BLA BLA BLA BLA 
BLA BLA BLA BLA BLA BLA BLA BLA BLA BLA BLA BLA BLA BLA BLA BLA BLA BLA BLA BLA 
BLA BLA BLA BLA BLA BLA BLA BLA BLA BLA BLA BLA BLA BLA BLA BLA BLA BLA BLA BLA 
BLA BLA BLA BLA BLA BLA BLA BLA BLA BLA BLA BLA BLA BLA BLA BLA BLA BLA BLA BLA 
BLA BLA BLA BLA BLA BLA BLA BLA BLA BLA BLA BLA BLA BLA BLA BLA BLA BLA BLA BLA 
BLA BLA BLA BLA BLA BLA BLA BLA BLA BLA BLA BLA BLA BLA BLA BLA BLA BLA BLA BLA 
BLA BLA BLA BLA BLA BLA BLA BLA BLA BLA BLA BLA BLA BLA BLA BLA BLA BLA BLA BLA 
BLA BLA BLA BLA BLA BLA BLA BLA BLA BLA BLA BLA BLA BLA BLA BLA BLA BLA BLA BLA 
BLA BLA BLA BLA BLA BLA BLA BLA BLA BLA BLA BLA BLA BLA BLA BLA BLA BLA BLA BLA 
BLA BLA BLA BLA BLA BLA BLA BLA BLA BLA BLA BLA BLA BLA BLA BLA BLA BLA BLA BLA 
BLA BLA BLA BLA BLA BLA BLA BLA BLA BLA BLA BLA BLA BLA 
%FLAG JOIN_ARRAY                                                                
%FORMAT(10I8)                                                                   
       0       0       0       0       0       0       0       0       0       0
       0       0       0       0       0       0       0       0       0       0
       0       0       0       0       0       0       0       0       0       0
       0       0       0       0       0       0       0       0       0       0
       0       0       0       0       0       0       0       0       0       0
       0       0       0       0       0       0       0       0       0       0
       0       0       0       0       0       0       0       0       0       0
       0       0       0       0       0       0       0       0       0       0
       0       0       0       0       0       0       0       0       0       0
       0       0       0       0       0       0       0       0       0       0
       0       0       0       0       0       0       0       0       0       0
       0       0       0       0       0       0       0       0       0       0
       0       0       0       0       0       0       0       0       0       0
       0       0       0       0       0       0       0       0       0       0
       0       0       0       0       0       0       0       0       0       0
       0       0       0       0       0       0       0       0       0       0
       0       0       0       0       0       0       0       0       0       0
       0       0       0       0       0       0       0       0       0       0
       0       0       0       0       0       0       0       0       0       0
       0       0       0       0       0       0       0       0       0       0
       0       0       0       0       0       0       0       0       0       0
       0       0       0       0       0       0       0       0       0       0
       0       0       0       0       0       0       0       0       0       0
       0       0       0       0       0       0       0       0       0       0
       0       0       0       0       0       0       0       0       0       0
       0       0       0       0       0       0       0       0       0       0
       0       0       0       0       0       0       0       0       0       0
       0       0       0       0       0       0       0       0       0       0
       0       0       0       0       0       0       0       0       0       0
       0       0       0       0       0       0       0       0       0       0
       0       0       0       0       0       0       0       0       0       0
       0       0       0       0       0       0       0       0       0       0
       0       0       0       0       0       0       0       0       0       0
       0       0       0       0       0       0       0       0       0       0
       0       0       0       0       0       0       0       0       0       0
       0       0       0       0       0       0       0       0       0       0
       0       0       0       0       0       0       0       0       0       0
       0       0       0       0       0       0       0       0       0       0
       0       0       0       0       0       0       0       0       0       0
       0       0       0       0       0       0       0       0       0       0
       0       0       0       0       0       0       0       0       0       0
       0       0       0       0       0       0       0       0       0       0
       0       0       0       0       0       0       0       0       0       0
       0       0       0       0       0       0       0       0       0       0
       0       0       0       0       0       0       0       0       0       0
       0       0       0       0       0       0       0       0       0       0
       0       0       0       0       0       0       0       0       0       0
       0       0       0       0       0       0       0       0       0       0
       0       0       0       0       0       0       0       0       0       0
       0       0       0       0       0       0       0       0       0       0
       0       0       0       0       0       0       0       0       0       0
       0       0       0       0       0       0       0       0       0       0
       0       0       0       0       0       0       0       0       0       0
       0       0       0       0       0       0       0       0       0       0
       0       0       0       0       0       0       0       0       0       0
       0       0       0       0       0       0       0       0       0       0
       0       0       0       0       0       0       0       0       0       0
       0       0       0       0       0       0       0       0       0       0
       0       0       0       0       0       0       0       0       0       0
       0       0       0       0       0       0       0       0       0       0
       0       0       0       0       0       0       0       0       0       0
       0       0       0       0       0       0       0       0       0       0
       0       0       0       0       0       0       0       0       0       0
       0       0       0       0       0       0       0       0       0       0
       0       0       0       0       0       0       0       0       0       0
       0       0       0       0       0       0       0       0       0       0
       0       0       0       0       0       0       0       0       0       0
       0       0       0       0       0       0       0       0       0       0
       0       0       0       0       0       0       0       0       0       0
       0       0       0       0       0       0       0       0       0       0
       0       0       0       0       0       0       0       0       0       0
       0       0       0       0       0       0       0       0       0       0
       0       0       0       0       0       0       0       0       0       0
       0       0       0       0       0       0       0       0       0       0
       0       0       0       0       0       0       0       0       0       0
       0       0       0       0       0       0       0       0       0       0
       0       0       0       0       0       0       0       0       0       0
       0       0       0       0       0       0       0       0       0       0
       0       0       0       0       0       0       0       0       0       0
       0       0       0       0       0       0       0       0       0       0
       0       0       0       0       0       0       0       0       0       0
       0       0       0       0       0       0       0       0       0       0
       0       0       0       0       0       0       0       0       0       0
       0       0       0       0       0       0       0       0       0       0
       0       0       0       0       0       0       0       0       0       0
       0       0       0       0       0       0       0       0       0       0
       0       0       0       0       0       0       0       0       0       0
       0       0       0       0       0       0       0       0       0       0
       0       0       0       0       0       0       0       0       0       0
       0       0       0       0       0       0       0       0       0       0
       0       0       0       0       0       0       0       0       0       0
       0       0       0       0       0       0       0       0       0       0
       0       0       0       0       0       0       0       0       0       0
       0       0       0       0       0       0       0       0       0       0
       0       0       0       0       0       0       0       0       0       0
       0       0       0       0       0       0       0       0       0       0
       0       0       0       0       0       0       0       0       0       0
       0       0       0       0       0       0       0       0       0       0
       0       0       0       0       0       0       0       0       0       0
       0       0       0       0       0       0       0       0       0       0
       0       0       0       0       0       0       0       0       0       0
       0       0       0       0       0       0       0       0       0       0
       0       0       0       0       0       0       0       0       0       0
       0       0       0       0       0       0       0       0       0       0
       0       0       0       0       0       0       0       0       0       0
       0       0       0       0       0       0       0       0       0       0
       0       0       0       0       0       0       0       0       0       0
       0       0       0       0       0       0       0       0       0       0
       0       0       0       0       0       0       0       0       0       0
       0       0       0       0       0       0       0       0       0       0
       0       0       0       0       0       0       0       0       0       0
       0       0       0       0       0       0       0       0       0       0
       0       0       0       0       0       0       0       0       0       0
       0       0       0       0       0       0       0       0       0       0
       0       0       0       0       0       0       0       0       0       0
       0       0       0       0       0       0       0       0       0       0
       0       0       0       0       0       0       0       0       0       0
       0       0       0       0       0       0       0       0       0       0
       0       0       0       0       0       0       0       0       0       0
       0       0       0       0       0       0       0       0       0       0
       0       0       0       0       0       0       0       0       0       0
       0       0       0       0       0       0       0       0       0       0
       0       0       0       0       0       0       0       0       0       0
       0       0       0       0       0       0       0       0       0       0
       0       0       0       0       0       0       0       0       0       0
       0       0       0       0       0       0       0       0       0       0
       0       0       0       0       0       0       0       0       0       0
       0       0       0       0       0       0       0       0       0       0
       0       0       0       0       0       0       0       0       0       0
       0       0       0       0       0       0       0       0       0       0
       0       0       0       0       0       0       0       0       0       0
       0       0       0       0       0       0       0       0       0       0
       0       0       0       0       0       0       0       0       0       0
       0       0       0       0       0       0       0       0       0       0
       0       0       0       0       0       0       0       0       0       0
       0       0       0       0       0       0       0       0       0       0
       0       0       0       0       0       0       0       0       0       0
       0       0       0       0       0       0       0       0       0       0
       0       0       0       0       0       0       0       0       0       0
       0       0       0       0       0       0       0       0       0       0
       0       0       0       0       0       0       0       0       0       0
       0       0       0       0       0       0       0       0       0       0
       0       0       0       0       0       0       0       0       0       0
       0       0       0       0       0       0       0       0       0       0
       0       0       0       0       0       0       0       0       0       0
       0       0       0       0       0       0       0       0       0       0
       0       0       0       0       0       0       0       0       0       0
       0       0       0       0       0       0       0       0       0       0
       0       0       0       0       0       0       0       0       0       0
       0       0       0       0       0       0       0       0       0       0
       0       0       0       0       0       0       0       0       0       0
       0       0       0       0       0       0       0       0       0       0
       0       0       0       0       0       0       0       0       0       0
       0       0       0       0       0       0       0       0       0       0
       0       0       0       0       0       0       0       0       0       0
       0       0       0       0       0       0       0       0       0       0
       0       0       0       0       0       0       0       0       0       0
       0       0       0       0       0       0       0       0       0       0
       0       0       0       0       0       0       0       0       0       0
       0       0       0       0       0       0       0       0       0       0
       0       0       0       0       0       0       0       0       0       0
       0       0       0       0       0       0       0       0       0       0
       0       0       0       0       0       0       0       0       0       0
       0       0       0       0       0       0       0       0       0       0
       0       0       0       0       0       0       0       0       0       0
       0       0       0       0       0       0       0       0       0       0
       0       0       0       0       0       0       0       0       0       0
       0       0       0       0       0       0       0       0       0       0
       0       0       0       0       0       0       0       0       0       0
       0       0       0       0       0       0       0       0       0       0
       0       0       0       0       0       0       0       0       0       0
       0       0       0       0       0       0       0       0       0       0
       0       0       0       0       0       0       0       0       0       0
       0       0       0       0       0       0       0       0       0       0
       0       0       0       0       0       0       0       0       0       0
       0       0       0       0       0       0       0       0       0       0
       0       0       0       0       0       0       0       0       0       0
       0       0       0       0       0       0       0       0       0       0
       0       0       0       0       0       0       0       0       0       0
       0       0       0       0       0       0       0       0       0       0
       0       0       0       0       0       0       0       0       0       0
       0       0       0       0       0       0       0       0       0       0
       0       0       0       0       0       0       0       0       0       0
       0       0       0       0       0       0       0       0       0       0
       0       0       0       0       0       0       0       0       0       0
       0       0       0       0       0       0       0       0       0       0
       0       0       0       0       0       0       0       0       0       0
       0       0       0       0       0       0       0       0       0       0
       0       0       0       0       0       0       0       0       0       0
       0       0       0       0       0       0       0       0       0       0
       0       0       0       0       0       0       0       0       0       0
       0       0       0       0       0       0       0       0       0       0
       0       0       0       0       0       0       0       0       0       0
       0       0       0       0       0       0       0       0       0       0
       0       0       0       0       0       0       0       0       0       0
       0       0       0       0       0       0       0       0       0       0
       0       0       0       0       0       0       0       0       0       0
       0       0       0       0       0       0       0       0       0       0
       0       0       0       0       0       0       0       0       0       0
       0       0       0       0       0       0       0       0       0       0
       0       0       0       0       0       0       0       0       0       0
       0       0       0       0       0       0       0       0       0       0
       0       0       0       0       0       0       0       0       0       0
       0       0       0       0       0       0       0       0       0       0
       0       0       0       0       0       0       0       0       0       0
       0       0       0       0       0       0       0       0       0       0
       0       0       0       0       0       0       0       0       0       0
       0       0       0       0       0       0       0       0       0       0
       0       0       0       0       0       0       0       0       0       0
       0       0       0       0       0       0       0       0       0       0
       0       0       0       0       0       0       0       0       0       0
       0       0       0       0       0       0       0       0       0       0
       0       0       0       0       0       0       0       0       0       0
       0       0       0       0       0       0       0       0       0       0
       0       0       0       0       0       0       0       0       0       0
       0       0       0       0       0       0       0       0       0       0
       0       0       0       0       0       0       0       0       0       0
       0       0       0       0       0       0       0       0       0       0
       0       0       0       0       0       0       0       0       0       0
       0       0       0       0       0       0       0       0       0       0
       0       0       0       0       0       0       0       0       0       0
       0       0       0       0       0       0       0       0       0       0
       0       0       0       0       0       0       0       0       0       0
       0       0       0       0       0       0       0       0       0       0
       0       0       0       0       0       0       0       0       0       0
       0       0       0       0       0       0       0       0       0       0
       0       0       0       0       0       0       0       0       0       0
       0       0       0       0       0       0       0       0       0       0
       0       0       0       0       0       0       0       0       0       0
       0       0       0       0       0       0       0       0       0       0
       0       0       0       0       0       0       0       0       0       0
       0       0       0       0       0       0       0       0       0       0
       0       0       0       0       0       0       0       0       0       0
       0       0       0       0       0       0       0       0       0       0
       0       0       0       0       0       0       0       0       0       0
       0       0       0       0       0       0       0       0       0       0
       0       0       0       0       0       0       0       0       0       0
       0       0       0       0       0       0       0       0       0       0
       0       0       0       0       0       0       0       0       0       0
       0       0       0       0       0       0       0       0       0       0
       0       0       0       0       0       0       0       0       0       0
       0       0       0       0       0       0       0       0       0       0
       0       0       0       0       0       0       0       0       0       0
       0       0       0       0       0       0       0       0       0       0
       0       0       0       0       0       0       0       0       0       0
       0       0       0       0       0       0       0       0       0       0
       0       0       0       0       0       0       0       0       0       0
       0       0       0       0       0       0       0       0       0       0
       0       0       0       0       0       0       0       0       0       0
       0       0       0       0       0       0       0       0       0       0
       0       0       0       0       0       0       0       0       0       0
       0       0       0       0       0       0       0       0       0       0
       0       0       0       0       0       0       0       0       0       0
       0       0       0       0       0       0       0       0       0       0
       0       0       0       0       0       0       0       0       0       0
       0       0       0       0       0       0       0       0       0       0
       0       0       0       0       0       0       0       0       0       0
       0       0       0       0       0       0       0       0       0       0
       0       0       0       0       0       0       0       0       0       0
       0       0       0       0       0       0       0       0       0       0
       0       0       0       0       0       0       0       0       0       0
       0       0       0       0       0       0       0       0       0       0
       0       0       0       0       0       0       0       0       0       0
       0       0       0       0       0       0       0       0       0       0
       0       0       0       0       0       0       0       0       0       0
       0       0       0       0       0       0       0       0       0       0
       0       0       0       0       0       0       0       0       0       0
       0       0       0       0       0       0       0       0       0       0
       0       0       0       0       0       0       0       0       0       0
       0       0       0       0
%FLAG IROTAT                                                                    
%FORMAT(10I8)                                                                   
       0       0       0       0       0       0       0       0       0       0
       0       0       0       0       0       0       0       0       0       0
       0       0       0       0       0       0       0       0       0       0
       0       0       0       0       0       0       0       0       0       0
       0       0       0       0       0       0       0       0       0       0
       0       0       0       0       0       0       0       0       0       0
       0       0       0       0       0       0       0       0       0       0
       0       0       0       0       0       0       0       0       0       0
       0       0       0       0       0       0       0       0       0       0
       0       0       0       0       0       0       0       0       0       0
       0       0       0       0       0       0       0       0       0       0
       0       0       0       0       0       0       0       0       0       0
       0       0       0       0       0       0       0       0       0       0
       0       0       0       0       0       0       0       0       0       0
       0       0       0       0       0       0       0       0       0       0
       0       0       0       0       0       0       0       0       0       0
       0       0       0       0       0       0       0       0       0       0
       0       0       0       0       0       0       0       0       0       0
       0       0       0       0       0       0       0       0       0       0
       0       0       0       0       0       0       0       0       0       0
       0       0       0       0       0       0       0       0       0       0
       0       0       0       0       0       0       0       0       0       0
       0       0       0       0       0       0       0       0       0       0
       0       0       0       0       0       0       0       0       0       0
       0       0       0       0       0       0       0       0       0       0
       0       0       0       0       0       0       0       0       0       0
       0       0       0       0       0       0       0       0       0       0
       0       0       0       0       0       0       0       0       0       0
       0       0       0       0       0       0       0       0       0       0
       0       0       0       0       0       0       0       0       0       0
       0       0       0       0       0       0       0       0       0       0
       0       0       0       0       0       0       0       0       0       0
       0       0       0       0       0       0       0       0       0       0
       0       0       0       0       0       0       0       0       0       0
       0       0       0       0       0       0       0       0       0       0
       0       0       0       0       0       0       0       0       0       0
       0       0       0       0       0       0       0       0       0       0
       0       0       0       0       0       0       0       0       0       0
       0       0       0       0       0       0       0       0       0       0
       0       0       0       0       0       0       0       0       0       0
       0       0       0       0       0       0       0       0       0       0
       0       0       0       0       0       0       0       0       0       0
       0       0       0       0       0       0       0       0       0       0
       0       0       0       0       0       0       0       0       0       0
       0       0       0       0       0       0       0       0       0       0
       0       0       0       0       0       0       0       0       0       0
       0       0       0       0       0       0       0       0       0       0
       0       0       0       0       0       0       0       0       0       0
       0       0       0       0       0       0       0       0       0       0
       0       0       0       0       0       0       0       0       0       0
       0       0       0       0       0       0       0       0       0       0
       0       0       0       0       0       0       0       0       0       0
       0       0       0       0       0       0       0       0       0       0
       0       0       0       0       0       0       0       0       0       0
       0       0       0       0       0       0       0       0       0       0
       0       0       0       0       0       0       0       0       0       0
       0       0       0       0       0       0       0       0       0       0
       0       0       0       0       0       0       0       0       0       0
       0       0       0       0       0       0       0       0       0       0
       0       0       0       0       0       0       0       0       0       0
       0       0       0       0       0       0       0       0       0       0
       0       0       0       0       0       0       0       0       0       0
       0       0       0       0       0       0       0       0       0       0
       0       0       0       0       0       0       0       0       0       0
       0       0       0       0       0       0       0       0       0       0
       0       0       0       0       0       0       0       0       0       0
       0       0       0       0       0       0       0       0       0       0
       0       0       0       0       0       0       0       0       0       0
       0       0       0       0       0       0       0       0       0       0
       0       0       0       0       0       0       0       0       0       0
       0       0       0       0       0       0       0       0       0       0
       0       0       0       0       0       0       0       0       0       0
       0       0       0       0       0       0       0       0       0       0
       0       0       0       0       0       0       0       0       0       0
       0       0       0       0       0       0       0       0       0       0
       0       0       0       0       0       0       0       0       0       0
       0       0       0       0       0       0       0       0       0       0
       0       0       0       0       0       0       0       0       0       0
       0       0       0       0       0       0       0       0       0       0
       0       0       0       0       0       0       0       0       0       0
       0       0       0       0       0       0       0       0       0       0
       0       0       0       0       0       0       0       0       0       0
       0       0       0       0       0       0       0       0       0       0
       0       0       0       0       0       0       0       0       0       0
       0       0       0       0       0       0       0       0       0       0
       0       0       0       0       0       0       0       0       0       0
       0       0       0       0       0       0       0       0       0       0
       0       0       0       0       0       0       0       0       0       0
       0       0       0       0       0       0       0       0       0       0
       0       0       0       0       0       0       0       0       0       0
       0       0       0       0       0       0       0       0       0       0
       0       0       0       0       0       0       0       0       0       0
       0       0       0       0       0       0       0       0       0       0
       0       0       0       0       0       0       0       0       0       0
       0       0       0       0       0       0       0       0       0       0
       0       0       0       0       0       0       0       0       0       0
       0       0       0       0       0       0       0       0       0       0
       0       0       0       0       0       0       0       0       0       0
       0       0       0       0       0       0       0       0       0       0
       0       0       0       0       0       0       0       0       0       0
       0       0       0       0       0       0       0       0       0       0
       0       0       0       0       0       0       0       0       0       0
       0       0       0       0       0       0       0       0       0       0
       0       0       0       0       0       0       0       0       0       0
       0       0       0       0       0       0       0       0       0       0
       0       0       0       0       0       0       0       0       0       0
       0       0       0       0       0       0       0       0       0       0
       0       0       0       0       0       0       0       0       0       0
       0       0       0       0       0       0       0       0       0       0
       0       0       0       0       0       0       0       0       0       0
       0       0       0       0       0       0       0       0       0       0
       0       0       0       0       0       0       0       0       0       0
       0       0       0       0       0       0       0       0       0       0
       0       0       0       0       0       0       0       0       0       0
       0       0       0       0       0       0       0       0       0       0
       0       0       0       0       0       0       0       0       0       0
       0       0       0       0       0       0       0       0       0       0
       0       0       0       0       0       0       0       0       0       0
       0       0       0       0       0       0       0       0       0       0
       0       0       0       0       0       0       0       0       0       0
       0       0       0       0       0       0       0       0       0       0
       0       0       0       0       0       0       0       0       0       0
       0       0       0       0       0       0       0       0       0       0
       0       0       0       0       0       0       0       0       0       0
       0       0       0       0       0       0       0       0       0       0
       0       0       0       0       0       0       0       0       0       0
       0       0       0       0       0       0       0       0       0       0
       0       0       0       0       0       0       0       0       0       0
       0       0       0       0       0       0       0       0       0       0
       0       0       0       0       0       0       0       0       0       0
       0       0       0       0       0       0       0       0       0       0
       0       0       0       0       0       0       0       0       0       0
       0       0       0       0       0       0       0       0       0       0
       0       0       0       0       0       0       0       0       0       0
       0       0       0       0       0       0       0       0       0       0
       0       0       0       0       0       0       0       0       0       0
       0       0       0       0       0       0       0       0       0       0
       0       0       0       0       0       0       0       0       0       0
       0       0       0       0       0       0       0       0       0       0
       0       0       0       0       0       0       0       0       0       0
       0       0       0       0       0       0       0       0       0       0
       0       0       0       0       0       0       0       0       0       0
       0       0       0       0       0       0       0       0       0       0
       0       0       0       0       0       0       0       0       0       0
       0       0       0       0       0       0       0       0       0       0
       0       0       0       0       0       0       0       0       0       0
       0       0       0       0       0       0       0       0       0       0
       0       0       0       0       0       0       0       0       0       0
       0       0       0       0       0       0       0       0       0       0
       0       0       0       0       0       0       0       0       0       0
       0       0       0       0       0       0       0       0       0       0
       0       0       0       0       0       0       0       0       0       0
       0       0       0       0       0       0       0       0       0       0
       0       0       0       0       0       0       0       0       0       0
       0       0       0       0       0       0       0       0       0       0
       0       0       0       0       0       0       0       0       0       0
       0       0       0       0       0       0       0       0       0       0
       0       0       0       0       0       0       0       0       0       0
       0       0       0       0       0       0       0       0       0       0
       0       0       0       0       0       0       0       0       0       0
       0       0       0       0       0       0       0       0       0       0
       0       0       0       0       0       0       0       0       0       0
       0       0       0       0       0       0       0       0       0       0
       0       0       0       0       0       0       0       0       0       0
       0       0       0       0       0       0       0       0       0       0
       0       0       0       0       0       0       0       0       0       0
       0       0       0       0       0       0       0       0       0       0
       0       0       0       0       0       0       0       0       0       0
       0       0       0       0       0       0       0       0       0       0
       0       0       0       0       0       0       0       0       0       0
       0       0       0       0       0       0       0       0       0       0
       0       0       0       0       0       0       0       0       0       0
       0       0       0       0       0       0       0       0       0       0
       0       0       0       0       0       0       0       0       0       0
       0       0       0       0       0       0       0       0       0       0
       0       0       0       0       0       0       0       0       0       0
       0       0       0       0       0       0       0       0       0       0
       0       0       0       0       0       0       0       0       0       0
       0       0       0       0       0       0       0       0       0       0
       0       0       0       0       0       0       0       0       0       0
       0       0       0       0       0       0       0       0       0       0
       0       0       0       0       0       0       0       0       0       0
       0       0       0       0       0       0       0       0       0       0
       0       0       0       0       0       0       0       0       0       0
       0       0       0       0       0       0       0       0       0       0
       0       0       0       0       0       0       0       0       0       0
       0       0       0       0       0       0       0       0       0       0
       0       0       0       0       0       0       0       0       0       0
       0       0       0       0       0       0       0       0       0       0
       0       0       0       0       0       0       0       0       0       0
       0       0       0       0       0       0       0       0       0       0
       0       0       0       0       0       0       0       0       0       0
       0       0       0       0       0       0       0       0       0       0
       0       0       0       0       0       0       0       0       0       0
       0       0       0       0       0       0       0       0       0       0
       0       0       0       0       0       0       0       0       0       0
       0       0       0       0       0       0       0       0       0       0
       0       0       0       0       0       0       0       0       0       0
       0       0       0       0       0       0       0       0       0       0
       0       0       0       0       0       0       0       0       0       0
       0       0       0       0       0       0       0       0       0       0
       0       0       0       0       0       0       0       0       0       0
       0       0       0       0       0       0       0       0       0       0
       0       0       0       0       0       0       0       0       0       0
       0       0       0       0       0       0       0       0       0       0
       0       0       0       0       0       0       0       0       0       0
       0       0       0       0       0       0       0       0       0       0
       0       0       0       0       0       0       0       0       0       0
       0       0       0       0       0       0       0       0       0       0
       0       0       0       0       0       0       0       0       0       0
       0       0       0       0       0       0       0       0       0       0
       0       0       0       0       0       0       0       0       0       0
       0       0       0       0       0       0       0       0       0       0
       0       0       0       0       0       0       0       0       0       0
       0       0       0       0       0       0       0       0       0       0
       0       0       0       0       0       0       0       0       0       0
       0       0       0       0       0       0       0       0       0       0
       0       0       0       0       0       0       0       0       0       0
       0       0       0       0       0       0       0       0       0       0
       0       0       0       0       0       0       0       0       0       0
       0       0       0       0       0       0       0       0       0       0
       0       0       0       0       0       0       0       0       0       0
       0       0       0       0       0       0       0       0       0       0
       0       0       0       0       0       0       0       0       0       0
       0       0       0       0       0       0       0       0       0       0
       0       0       0       0       0       0       0       0       0       0
       0       0       0       0       0       0       0       0       0       0
       0       0       0       0       0       0       0       0       0       0
       0       0       0       0       0       0       0       0       0       0
       0       0       0       0       0       0       0       0       0       0
       0       0       0       0       0       0       0       0       0       0
       0       0       0       0       0       0       0       0       0       0
       0       0       0       0       0       0       0       0       0       0
       0       0       0       0       0       0       0       0       0       0
       0       0       0       0       0       0       0       0       0       0
       0       0       0       0       0       0       0       0       0       0
       0       0       0       0       0       0       0       0       0       0
       0       0       0       0       0       0       0       0       0       0
       0       0       0       0       0       0       0       0       0       0
       0       0       0       0       0       0       0       0       0       0
       0       0       0       0       0       0       0       0       0       0
       0       0       0       0       0       0       0       0       0       0
       0       0       0       0       0       0       0       0       0       0
       0       0       0       0       0       0       0       0       0       0
       0       0       0       0       0       0       0       0       0       0
       0       0       0       0       0       0       0       0       0       0
       0       0       0       0       0       0       0       0       0       0
       0       0       0       0       0       0       0       0       0       0
       0       0       0       0       0       0       0       0       0       0
       0       0       0       0       0       0       0       0       0       0
       0       0       0       0       0       0       0       0       0       0
       0       0       0       0       0       0       0       0       0       0
       0       0       0       0       0       0       0       0       0       0
       0       0       0       0       0       0       0       0       0       0
       0       0       0       0       0       0       0       0       0       0
       0       0       0       0       0       0       0       0       0       0
       0       0       0       0       0       0       0       0       0       0
       0       0       0       0       0       0       0       0       0       0
       0       0       0       0       0       0       0       0       0       0
       0       0       0       0       0       0       0       0       0       0
       0       0       0       0       0       0       0       0       0       0
       0       0       0       0       0       0       0       0       0       0
       0       0       0       0       0       0       0       0       0       0
       0       0       0       0       0       0       0       0       0       0
       0       0       0       0       0       0       0       0       0       0
       0       0       0       0       0       0       0       0       0       0
       0       0       0       0       0       0       0       0       0       0
       0       0       0       0       0       0       0       0       0       0
       0       0       0       0       0       0       0       0       0       0
       0       0       0       0
%FLAG SOLVENT_POINTERS                                                          
%FORMAT(3I8)                                                                    
       6       6       7
%FLAG ATOMS_PER_MOLECULE                                                        
%FORMAT(10I8)                                                                   
     449     449     449     449     449     449
%FLAG BOX_DIMENSIONS                                                            
%FORMAT(5E16.8)                                                                 
  9.00000000E+01  9.00000000E+01  9.00000000E+01  9.00000000E+01
%FLAG RADIUS_SET                                                                
%FORMAT(1a80)                                                                   
modified Bondi radii (mbondi)                                                   
%FLAG RADII                                                                     
%FORMAT(5E16.8)                                                                 
  1.55000000E+00  1.70000000E+00  1.70000000E+00  1.70000000E+00  1.70000000E+00
  1.50000000E+00  1.70000000E+00  1.70000000E+00  1.70000000E+00  1.70000000E+00
  1.55000000E+00  1.70000000E+00  1.70000000E+00  1.70000000E+00  1.70000000E+00
  1.30000000E+00  1.30000000E+00  1.30000000E+00  1.30000000E+00  1.30000000E+00
  1.30000000E+00  1.30000000E+00  1.30000000E+00  1.30000000E+00  1.30000000E+00
  1.50000000E+00  1.70000000E+00  1.70000000E+00  1.50000000E+00  1.70000000E+00
  1.70000000E+00  1.70000000E+00  1.70000000E+00  1.50000000E+00  1.70000000E+00
  1.70000000E+00  1.70000000E+00  1.70000000E+00  1.70000000E+00  1.50000000E+00
  1.70000000E+00  1.50000000E+00  1.70000000E+00  1.70000000E+00  1.70000000E+00
  1.70000000E+00  1.30000000E+00  1.30000000E+00  1.30000000E+00  1.30000000E+00
  1.30000000E+00  1.30000000E+00  1.55000000E+00  1.70000000E+00  1.70000000E+00
  1.70000000E+00  1.55000000E+00  1.70000000E+00  1.70000000E+00  1.70000000E+00
  1.50000000E+00  1.55000000E+00  1.70000000E+00  1.70000000E+00  1.70000000E+00
  1.70000000E+00  1.70000000E+00  1.70000000E+00  1.50000000E+00  1.70000000E+00
  1.50000000E+00  1.70000000E+00  1.70000000E+00  1.30000000E+00  1.30000000E+00
  1.30000000E+00  1.30000000E+00  1.30000000E+00  1.30000000E+00  1.30000000E+00
  1.30000000E+00  1.30000000E+00  8.00000000E-01  8.00000000E-01  1.30000000E+00
  1.30000000E+00  1.50000000E+00  1.70000000E+00  1.70000000E+00  1.50000000E+00
  1.70000000E+00  1.70000000E+00  1.70000000E+00  1.70000000E+00  1.50000000E+00
  1.70000000E+00  1.70000000E+00  1.70000000E+00  1.70000000E+00  1.70000000E+00
  1.50000000E+00  1.70000000E+00  1.50000000E+00  1.70000000E+00  1.70000000E+00
  1.70000000E+00  1.70000000E+00  1.30000000E+00  1.30000000E+00  1.30000000E+00
  1.30000000E+00  1.30000000E+00  1.30000000E+00  1.55000000E+00  1.70000000E+00
  1.70000000E+00  1.70000000E+00  1.70000000E+00  1.50000000E+00  1.70000000E+00
  1.70000000E+00  1.70000000E+00  1.70000000E+00  1.55000000E+00  1.70000000E+00
  1.70000000E+00  1.70000000E+00  1.70000000E+00  1.30000000E+00  1.30000000E+00
  1.30000000E+00  1.30000000E+00  1.30000000E+00  1.30000000E+00  1.30000000E+00
  1.30000000E+00  1.50000000E+00  1.70000000E+00  1.70000000E+00  1.50000000E+00
  1.70000000E+00  1.70000000E+00  1.70000000E+00  1.70000000E+00  1.50000000E+00
  1.70000000E+00  1.70000000E+00  1.70000000E+00  1.70000000E+00  1.70000000E+00
  1.50000000E+00  1.70000000E+00  1.50000000E+00  1.70000000E+00  1.70000000E+00
  1.70000000E+00  1.70000000E+00  1.30000000E+00  1.30000000E+00  1.30000000E+00
  1.30000000E+00  1.30000000E+00  1.30000000E+00  1.55000000E+00  1.70000000E+00
  1.70000000E+00  1.70000000E+00  1.70000000E+00  1.50000000E+00  1.70000000E+00
  1.70000000E+00  1.70000000E+00  1.70000000E+00  1.55000000E+00  1.70000000E+00
  1.70000000E+00  1.70000000E+00  1.70000000E+00  1.30000000E+00  1.30000000E+00
  1.30000000E+00  1.30000000E+00  1.30000000E+00  1.30000000E+00  1.30000000E+00
  1.30000000E+00  1.50000000E+00  1.70000000E+00  1.70000000E+00  1.50000000E+00
  1.70000000E+00  1.70000000E+00  1.70000000E+00  1.70000000E+00  1.50000000E+00
  1.70000000E+00  1.70000000E+00  1.70000000E+00  1.70000000E+00  1.70000000E+00
  1.50000000E+00  1.70000000E+00  1.50000000E+00  1.70000000E+00  1.70000000E+00
  1.70000000E+00  1.70000000E+00  1.30000000E+00  1.30000000E+00  1.30000000E+00
  1.30000000E+00  1.30000000E+00  1.30000000E+00  1.55000000E+00  1.70000000E+00
  1.70000000E+00  1.70000000E+00  1.70000000E+00  1.50000000E+00  1.70000000E+00
  1.70000000E+00  1.70000000E+00  1.70000000E+00  1.55000000E+00  1.70000000E+00
  1.70000000E+00  1.70000000E+00  1.70000000E+00  1.30000000E+00  1.30000000E+00
  1.30000000E+00  1.30000000E+00  1.30000000E+00  1.30000000E+00  1.30000000E+00
  1.30000000E+00  1.50000000E+00  1.70000000E+00  1.70000000E+00  1.50000000E+00
  1.70000000E+00  1.70000000E+00  1.70000000E+00  1.70000000E+00  1.50000000E+00
  1.70000000E+00  1.70000000E+00  1.70000000E+00  1.70000000E+00  1.70000000E+00
  1.50000000E+00  1.70000000E+00  1.50000000E+00  1.70000000E+00  1.70000000E+00
  1.70000000E+00  1.70000000E+00  1.30000000E+00  1.30000000E+00  1.30000000E+00
  1.30000000E+00  1.30000000E+00  1.30000000E+00  1.55000000E+00  1.70000000E+00
  1.70000000E+00  1.70000000E+00  1.70000000E+00  1.50000000E+00  1.70000000E+00
  1.70000000E+00  1.70000000E+00  1.70000000E+00  1.55000000E+00  1.70000000E+00
  1.70000000E+00  1.70000000E+00  1.70000000E+00  1.30000000E+00  1.30000000E+00
  1.30000000E+00  1.30000000E+00  1.30000000E+00  1.30000000E+00  1.30000000E+00
  1.30000000E+00  1.50000000E+00  1.70000000E+00  1.70000000E+00  1.50000000E+00
  1.70000000E+00  1.70000000E+00  1.70000000E+00  1.70000000E+00  1.50000000E+00
  1.70000000E+00  1.70000000E+00  1.70000000E+00  1.70000000E+00  1.70000000E+00
  1.50000000E+00  1.70000000E+00  1.50000000E+00  1.70000000E+00  1.70000000E+00
  1.70000000E+00  1.70000000E+00  1.30000000E+00  1.30000000E+00  1.30000000E+00
  1.30000000E+00  1.30000000E+00  1.30000000E+00  1.55000000E+00  1.70000000E+00
  1.70000000E+00  1.70000000E+00  1.70000000E+00  1.50000000E+00  1.70000000E+00
  1.70000000E+00  1.70000000E+00  1.70000000E+00  1.55000000E+00  1.70000000E+00
  1.70000000E+00  1.70000000E+00  1.70000000E+00  1.30000000E+00  1.30000000E+00
  1.30000000E+00  1.30000000E+00  1.30000000E+00  1.30000000E+00  1.30000000E+00
  1.30000000E+00  1.50000000E+00  1.70000000E+00  1.70000000E+00  1.50000000E+00
  1.70000000E+00  1.70000000E+00  1.70000000E+00  1.70000000E+00  1.50000000E+00
  1.70000000E+00  1.70000000E+00  1.70000000E+00  1.70000000E+00  1.70000000E+00
  1.50000000E+00  1.70000000E+00  1.50000000E+00  1.70000000E+00  1.70000000E+00
  1.70000000E+00  1.70000000E+00  1.30000000E+00  1.30000000E+00  1.30000000E+00
  1.30000000E+00  1.30000000E+00  1.30000000E+00  1.55000000E+00  1.70000000E+00
  1.70000000E+00  1.70000000E+00  1.55000000E+00  1.70000000E+00  1.70000000E+00
  1.70000000E+00  1.50000000E+00  1.55000000E+00  1.70000000E+00  1.70000000E+00
  1.70000000E+00  1.70000000E+00  1.70000000E+00  1.70000000E+00  1.50000000E+00
  1.70000000E+00  1.50000000E+00  1.70000000E+00  1.70000000E+00  1.30000000E+00
  1.30000000E+00  1.30000000E+00  1.30000000E+00  1.30000000E+00  1.30000000E+00
  1.30000000E+00  1.30000000E+00  1.30000000E+00  8.00000000E-01  8.00000000E-01
  1.30000000E+00  1.30000000E+00  1.50000000E+00  1.70000000E+00  1.70000000E+00
  1.50000000E+00  1.70000000E+00  1.70000000E+00  1.70000000E+00  1.70000000E+00
  1.50000000E+00  1.70000000E+00  1.70000000E+00  1.70000000E+00  1.70000000E+00
  1.70000000E+00  1.50000000E+00  1.70000000E+00  1.50000000E+00  1.70000000E+00
  1.70000000E+00  1.70000000E+00  1.70000000E+00  1.30000000E+00  1.30000000E+00
  1.30000000E+00  1.30000000E+00  1.30000000E+00  1.30000000E+00  1.55000000E+00
  1.70000000E+00  1.70000000E+00  1.70000000E+00  1.70000000E+00  1.50000000E+00
  1.70000000E+00  1.70000000E+00  1.70000000E+00  1.70000000E+00  1.55000000E+00
  1.70000000E+00  1.70000000E+00  1.70000000E+00  1.70000000E+00  1.30000000E+00
  1.30000000E+00  1.30000000E+00  1.30000000E+00  1.30000000E+00  1.30000000E+00
  1.30000000E+00  1.30000000E+00  1.30000000E+00  1.30000000E+00  1.55000000E+00
  1.70000000E+00  1.70000000E+00  1.70000000E+00  1.70000000E+00  1.50000000E+00
  1.70000000E+00  1.70000000E+00  1.70000000E+00  1.70000000E+00  1.55000000E+00
  1.70000000E+00  1.70000000E+00  1.70000000E+00  1.70000000E+00  1.30000000E+00
  1.30000000E+00  1.30000000E+00  1.30000000E+00  1.30000000E+00  1.30000000E+00
  1.30000000E+00  1.30000000E+00  1.30000000E+00  1.30000000E+00  1.50000000E+00
  1.70000000E+00  1.70000000E+00  1.50000000E+00  1.70000000E+00  1.70000000E+00
  1.70000000E+00  1.70000000E+00  1.50000000E+00  1.70000000E+00  1.70000000E+00
  1.70000000E+00  1.70000000E+00  1.70000000E+00  1.50000000E+00  1.70000000E+00
  1.50000000E+00  1.70000000E+00  1.70000000E+00  1.70000000E+00  1.70000000E+00
  1.30000000E+00  1.30000000E+00  1.30000000E+00  1.30000000E+00  1.30000000E+00
  1.30000000E+00  1.55000000E+00  1.70000000E+00  1.70000000E+00  1.70000000E+00
  1.55000000E+00  1.70000000E+00  1.70000000E+00  1.70000000E+00  1.50000000E+00
  1.55000000E+00  1.70000000E+00  1.70000000E+00  1.70000000E+00  1.70000000E+00
  1.70000000E+00  1.70000000E+00  1.50000000E+00  1.70000000E+00  1.50000000E+00
  1.70000000E+00  1.70000000E+00  1.30000000E+00  1.30000000E+00  1.30000000E+00
  1.30000000E+00  1.30000000E+00  1.30000000E+00  1.30000000E+00  1.30000000E+00
  1.30000000E+00  8.00000000E-01  8.00000000E-01  1.30000000E+00  1.30000000E+00
  1.50000000E+00  1.70000000E+00  1.70000000E+00  1.50000000E+00  1.70000000E+00
  1.70000000E+00  1.70000000E+00  1.70000000E+00  1.50000000E+00  1.70000000E+00
  1.70000000E+00  1.70000000E+00  1.70000000E+00  1.70000000E+00  1.50000000E+00
  1.70000000E+00  1.50000000E+00  1.70000000E+00  1.70000000E+00  1.70000000E+00
  1.70000000E+00  1.30000000E+00  1.30000000E+00  1.30000000E+00  1.30000000E+00
  1.30000000E+00  1.30000000E+00  1.55000000E+00  1.70000000E+00  1.70000000E+00
  1.70000000E+00  1.70000000E+00  1.50000000E+00  1.70000000E+00  1.70000000E+00
  1.70000000E+00  1.70000000E+00  1.55000000E+00  1.70000000E+00  1.70000000E+00
  1.70000000E+00  1.70000000E+00  1.30000000E+00  1.30000000E+00  1.30000000E+00
  1.30000000E+00  1.30000000E+00  1.30000000E+00  1.30000000E+00  1.30000000E+00
  1.50000000E+00  1.70000000E+00  1.70000000E+00  1.50000000E+00  1.70000000E+00
  1.70000000E+00  1.70000000E+00  1.70000000E+00  1.50000000E+00  1.70000000E+00
  1.70000000E+00  1.70000000E+00  1.70000000E+00  1.70000000E+00  1.50000000E+00
  1.70000000E+00  1.50000000E+00  1.70000000E+00  1.70000000E+00  1.70000000E+00
  1.70000000E+00  1.30000000E+00  1.30000000E+00  1.30000000E+00  1.30000000E+00
  1.30000000E+00  1.30000000E+00  1.55000000E+00  1.70000000E+00  1.70000000E+00
  1.70000000E+00  1.70000000E+00  1.50000000E+00  1.70000000E+00  1.70000000E+00
  1.70000000E+00  1.70000000E+00  1.55000000E+00  1.70000000E+00  1.70000000E+00
  1.70000000E+00  1.70000000E+00  1.30000000E+00  1.30000000E+00  1.30000000E+00
  1.30000000E+00  1.30000000E+00  1.30000000E+00  1.30000000E+00  1.30000000E+00
  1.50000000E+00  1.70000000E+00  1.70000000E+00  1.50000000E+00  1.70000000E+00
  1.70000000E+00  1.70000000E+00  1.70000000E+00  1.50000000E+00  1.70000000E+00
  1.70000000E+00  1.70000000E+00  1.70000000E+00  1.70000000E+00  1.50000000E+00
  1.70000000E+00  1.50000000E+00  1.70000000E+00  1.70000000E+00  1.70000000E+00
  1.70000000E+00  1.30000000E+00  1.30000000E+00  1.30000000E+00  1.30000000E+00
  1.30000000E+00  1.30000000E+00  1.55000000E+00  1.70000000E+00  1.70000000E+00
  1.70000000E+00  1.70000000E+00  1.50000000E+00  1.70000000E+00  1.70000000E+00
  1.70000000E+00  1.70000000E+00  1.55000000E+00  1.70000000E+00  1.70000000E+00
  1.70000000E+00  1.70000000E+00  1.30000000E+00  1.30000000E+00  1.30000000E+00
  1.30000000E+00  1.30000000E+00  1.30000000E+00  1.30000000E+00  1.30000000E+00
  1.50000000E+00  1.70000000E+00  1.70000000E+00  1.50000000E+00  1.70000000E+00
  1.70000000E+00  1.70000000E+00  1.70000000E+00  1.50000000E+00  1.70000000E+00
  1.70000000E+00  1.70000000E+00  1.70000000E+00  1.70000000E+00  1.50000000E+00
  1.70000000E+00  1.50000000E+00  1.70000000E+00  1.70000000E+00  1.70000000E+00
  1.70000000E+00  1.30000000E+00  1.30000000E+00  1.30000000E+00  1.30000000E+00
  1.30000000E+00  1.30000000E+00  1.55000000E+00  1.70000000E+00  1.70000000E+00
  1.70000000E+00  1.70000000E+00  1.50000000E+00  1.70000000E+00  1.70000000E+00
  1.70000000E+00  1.70000000E+00  1.55000000E+00  1.70000000E+00  1.70000000E+00
  1.70000000E+00  1.70000000E+00  1.30000000E+00  1.30000000E+00  1.30000000E+00
  1.30000000E+00  1.30000000E+00  1.30000000E+00  1.30000000E+00  1.30000000E+00
  1.50000000E+00  1.70000000E+00  1.70000000E+00  1.50000000E+00  1.70000000E+00
  1.70000000E+00  1.70000000E+00  1.70000000E+00  1.50000000E+00  1.70000000E+00
  1.70000000E+00  1.70000000E+00  1.70000000E+00  1.70000000E+00  1.50000000E+00
  1.70000000E+00  1.50000000E+00  1.70000000E+00  1.70000000E+00  1.70000000E+00
  1.70000000E+00  1.30000000E+00  1.30000000E+00  1.30000000E+00  1.30000000E+00
  1.30000000E+00  1.30000000E+00  1.55000000E+00  1.70000000E+00  1.70000000E+00
  1.70000000E+00  1.70000000E+00  1.50000000E+00  1.70000000E+00  1.70000000E+00
  1.70000000E+00  1.70000000E+00  1.55000000E+00  1.70000000E+00  1.70000000E+00
  1.70000000E+00  1.70000000E+00  1.30000000E+00  1.30000000E+00  1.30000000E+00
  1.30000000E+00  1.30000000E+00  1.30000000E+00  1.30000000E+00  1.30000000E+00
  1.50000000E+00  1.70000000E+00  1.70000000E+00  1.50000000E+00  1.70000000E+00
  1.70000000E+00  1.70000000E+00  1.70000000E+00  1.50000000E+00  1.70000000E+00
  1.70000000E+00  1.70000000E+00  1.70000000E+00  1.70000000E+00  1.50000000E+00
  1.70000000E+00  1.50000000E+00  1.70000000E+00  1.70000000E+00  1.70000000E+00
  1.70000000E+00  1.30000000E+00  1.30000000E+00  1.30000000E+00  1.30000000E+00
  1.30000000E+00  1.30000000E+00  1.55000000E+00  1.70000000E+00  1.70000000E+00
  1.70000000E+00  1.55000000E+00  1.70000000E+00  1.70000000E+00  1.70000000E+00
  1.50000000E+00  1.55000000E+00  1.70000000E+00  1.70000000E+00  1.70000000E+00
  1.70000000E+00  1.70000000E+00  1.70000000E+00  1.50000000E+00  1.70000000E+00
  1.50000000E+00  1.70000000E+00  1.70000000E+00  1.30000000E+00  1.30000000E+00
  1.30000000E+00  1.30000000E+00  1.30000000E+00  1.30000000E+00  1.30000000E+00
  1.30000000E+00  1.30000000E+00  8.00000000E-01  8.00000000E-01  1.30000000E+00
  1.30000000E+00  1.50000000E+00  1.70000000E+00  1.70000000E+00  1.50000000E+00
  1.70000000E+00  1.70000000E+00  1.70000000E+00  1.70000000E+00  1.50000000E+00
  1.70000000E+00  1.70000000E+00  1.70000000E+00  1.70000000E+00  1.70000000E+00
  1.50000000E+00  1.70000000E+00  1.50000000E+00  1.70000000E+00  1.70000000E+00
  1.70000000E+00  1.70000000E+00  1.30000000E+00  1.30000000E+00  1.30000000E+00
  1.30000000E+00  1.30000000E+00  1.30000000E+00  1.55000000E+00  1.70000000E+00
  1.70000000E+00  1.70000000E+00  1.70000000E+00  1.50000000E+00  1.70000000E+00
  1.70000000E+00  1.70000000E+00  1.70000000E+00  1.55000000E+00  1.70000000E+00
  1.70000000E+00  1.70000000E+00  1.70000000E+00  1.30000000E+00  1.30000000E+00
  1.30000000E+00  1.30000000E+00  1.30000000E+00  1.30000000E+00  1.30000000E+00
  1.30000000E+00  1.30000000E+00  1.30000000E+00  1.55000000E+00  1.70000000E+00
  1.70000000E+00  1.70000000E+00  1.70000000E+00  1.50000000E+00  1.70000000E+00
  1.70000000E+00  1.70000000E+00  1.70000000E+00  1.55000000E+00  1.70000000E+00
  1.70000000E+00  1.70000000E+00  1.70000000E+00  1.30000000E+00  1.30000000E+00
  1.30000000E+00  1.30000000E+00  1.30000000E+00  1.30000000E+00  1.30000000E+00
  1.30000000E+00  1.30000000E+00  1.30000000E+00  1.50000000E+00  1.70000000E+00
  1.70000000E+00  1.50000000E+00  1.70000000E+00  1.70000000E+00  1.70000000E+00
  1.70000000E+00  1.50000000E+00  1.70000000E+00  1.70000000E+00  1.70000000E+00
  1.70000000E+00  1.70000000E+00  1.50000000E+00  1.70000000E+00  1.50000000E+00
  1.70000000E+00  1.70000000E+00  1.70000000E+00  1.70000000E+00  1.30000000E+00
  1.30000000E+00  1.30000000E+00  1.30000000E+00  1.30000000E+00  1.30000000E+00
  1.55000000E+00  1.70000000E+00  1.70000000E+00  1.70000000E+00  1.55000000E+00
  1.70000000E+00  1.70000000E+00  1.70000000E+00  1.50000000E+00  1.55000000E+00
  1.70000000E+00  1.70000000E+00  1.70000000E+00  1.70000000E+00  1.70000000E+00
  1.70000000E+00  1.50000000E+00  1.70000000E+00  1.50000000E+00  1.70000000E+00
  1.70000000E+00  1.30000000E+00  1.30000000E+00  1.30000000E+00  1.30000000E+00
  1.30000000E+00  1.30000000E+00  1.30000000E+00  1.30000000E+00  1.30000000E+00
  8.00000000E-01  8.00000000E-01  1.30000000E+00  1.30000000E+00  1.50000000E+00
  1.70000000E+00  1.70000000E+00  1.50000000E+00  1.70000000E+00  1.70000000E+00
  1.70000000E+00  1.70000000E+00  1.50000000E+00  1.70000000E+00  1.70000000E+00
  1.70000000E+00  1.70000000E+00  1.70000000E+00  1.50000000E+00  1.70000000E+00
  1.50000000E+00  1.70000000E+00  1.70000000E+00  1.70000000E+00  1.70000000E+00
  1.30000000E+00  1.30000000E+00  1.30000000E+00  1.30000000E+00  1.30000000E+00
  1.30000000E+00  1.55000000E+00  1.70000000E+00  1.70000000E+00  1.70000000E+00
  1.70000000E+00  1.50000000E+00  1.70000000E+00  1.70000000E+00  1.70000000E+00
  1.70000000E+00  1.55000000E+00  1.70000000E+00  1.70000000E+00  1.70000000E+00
  1.70000000E+00  1.30000000E+00  1.30000000E+00  1.30000000E+00  1.30000000E+00
  1.30000000E+00  1.30000000E+00  1.30000000E+00  1.30000000E+00  1.50000000E+00
  1.70000000E+00  1.70000000E+00  1.50000000E+00  1.70000000E+00  1.70000000E+00
  1.70000000E+00  1.70000000E+00  1.50000000E+00  1.70000000E+00  1.70000000E+00
  1.70000000E+00  1.70000000E+00  1.70000000E+00  1.50000000E+00  1.70000000E+00
  1.50000000E+00  1.70000000E+00  1.70000000E+00  1.70000000E+00  1.70000000E+00
  1.30000000E+00  1.30000000E+00  1.30000000E+00  1.30000000E+00  1.30000000E+00
  1.30000000E+00  1.55000000E+00  1.70000000E+00  1.70000000E+00  1.70000000E+00
  1.70000000E+00  1.50000000E+00  1.70000000E+00  1.70000000E+00  1.70000000E+00
  1.70000000E+00  1.55000000E+00  1.70000000E+00  1.70000000E+00  1.70000000E+00
  1.70000000E+00  1.30000000E+00  1.30000000E+00  1.30000000E+00  1.30000000E+00
  1.30000000E+00  1.30000000E+00  1.30000000E+00  1.30000000E+00  1.50000000E+00
  1.70000000E+00  1.70000000E+00  1.50000000E+00  1.70000000E+00  1.70000000E+00
  1.70000000E+00  1.70000000E+00  1.50000000E+00  1.70000000E+00  1.70000000E+00
  1.70000000E+00  1.70000000E+00  1.70000000E+00  1.50000000E+00  1.70000000E+00
  1.50000000E+00  1.70000000E+00  1.70000000E+00  1.70000000E+00  1.70000000E+00
  1.30000000E+00  1.30000000E+00  1.30000000E+00  1.30000000E+00  1.30000000E+00
  1.30000000E+00  1.55000000E+00  1.70000000E+00  1.70000000E+00  1.70000000E+00
  1.70000000E+00  1.50000000E+00  1.70000000E+00  1.70000000E+00  1.70000000E+00
  1.70000000E+00  1.55000000E+00  1.70000000E+00  1.70000000E+00  1.70000000E+00
  1.70000000E+00  1.30000000E+00  1.30000000E+00  1.30000000E+00  1.30000000E+00
  1.30000000E+00  1.30000000E+00  1.30000000E+00  1.30000000E+00  1.50000000E+00
  1.70000000E+00  1.70000000E+00  1.50000000E+00  1.70000000E+00  1.70000000E+00
  1.70000000E+00  1.70000000E+00  1.50000000E+00  1.70000000E+00  1.70000000E+00
  1.70000000E+00  1.70000000E+00  1.70000000E+00  1.50000000E+00  1.70000000E+00
  1.50000000E+00  1.70000000E+00  1.70000000E+00  1.70000000E+00  1.70000000E+00
  1.30000000E+00  1.30000000E+00  1.30000000E+00  1.30000000E+00  1.30000000E+00
  1.30000000E+00  1.55000000E+00  1.70000000E+00  1.70000000E+00  1.70000000E+00
  1.70000000E+00  1.50000000E+00  1.70000000E+00  1.70000000E+00  1.70000000E+00
  1.70000000E+00  1.55000000E+00  1.70000000E+00  1.70000000E+00  1.70000000E+00
  1.70000000E+00  1.30000000E+00  1.30000000E+00  1.30000000E+00  1.30000000E+00
  1.30000000E+00  1.30000000E+00  1.30000000E+00  1.30000000E+00  1.50000000E+00
  1.70000000E+00  1.70000000E+00  1.50000000E+00  1.70000000E+00  1.70000000E+00
  1.70000000E+00  1.70000000E+00  1.50000000E+00  1.70000000E+00  1.70000000E+00
  1.70000000E+00  1.70000000E+00  1.70000000E+00  1.50000000E+00  1.70000000E+00
  1.50000000E+00  1.70000000E+00  1.70000000E+00  1.70000000E+00  1.70000000E+00
  1.30000000E+00  1.30000000E+00  1.30000000E+00  1.30000000E+00  1.30000000E+00
  1.30000000E+00  1.55000000E+00  1.70000000E+00  1.70000000E+00  1.70000000E+00
  1.70000000E+00  1.50000000E+00  1.70000000E+00  1.70000000E+00  1.70000000E+00
  1.70000000E+00  1.55000000E+00  1.70000000E+00  1.70000000E+00  1.70000000E+00
  1.70000000E+00  1.30000000E+00  1.30000000E+00  1.30000000E+00  1.30000000E+00
  1.30000000E+00  1.30000000E+00  1.30000000E+00  1.30000000E+00  1.50000000E+00
  1.70000000E+00  1.70000000E+00  1.50000000E+00  1.70000000E+00  1.70000000E+00
  1.70000000E+00  1.70000000E+00  1.50000000E+00  1.70000000E+00  1.70000000E+00
  1.70000000E+00  1.70000000E+00  1.70000000E+00  1.50000000E+00  1.70000000E+00
  1.50000000E+00  1.70000000E+00  1.70000000E+00  1.70000000E+00  1.70000000E+00
  1.30000000E+00  1.30000000E+00  1.30000000E+00  1.30000000E+00  1.30000000E+00
  1.30000000E+00  1.55000000E+00  1.70000000E+00  1.70000000E+00  1.70000000E+00
  1.55000000E+00  1.70000000E+00  1.70000000E+00  1.70000000E+00  1.50000000E+00
  1.55000000E+00  1.70000000E+00  1.70000000E+00  1.70000000E+00  1.70000000E+00
  1.70000000E+00  1.70000000E+00  1.50000000E+00  1.70000000E+00  1.50000000E+00
  1.70000000E+00  1.70000000E+00  1.30000000E+00  1.30000000E+00  1.30000000E+00
  1.30000000E+00  1.30000000E+00  1.30000000E+00  1.30000000E+00  1.30000000E+00
  1.30000000E+00  8.00000000E-01  8.00000000E-01  1.30000000E+00  1.30000000E+00
  1.50000000E+00  1.70000000E+00  1.70000000E+00  1.50000000E+00  1.70000000E+00
  1.70000000E+00  1.70000000E+00  1.70000000E+00  1.50000000E+00  1.70000000E+00
  1.70000000E+00  1.70000000E+00  1.70000000E+00  1.70000000E+00  1.50000000E+00
  1.70000000E+00  1.50000000E+00  1.70000000E+00  1.70000000E+00  1.70000000E+00
  1.70000000E+00  1.30000000E+00  1.30000000E+00  1.30000000E+00  1.30000000E+00
  1.30000000E+00  1.30000000E+00  1.55000000E+00  1.70000000E+00  1.70000000E+00
  1.70000000E+00  1.70000000E+00  1.50000000E+00  1.70000000E+00  1.70000000E+00
  1.70000000E+00  1.70000000E+00  1.55000000E+00  1.70000000E+00  1.70000000E+00
  1.70000000E+00  1.70000000E+00  1.30000000E+00  1.30000000E+00  1.30000000E+00
  1.30000000E+00  1.30000000E+00  1.30000000E+00  1.30000000E+00  1.30000000E+00
  1.30000000E+00  1.30000000E+00  1.55000000E+00  1.70000000E+00  1.70000000E+00
  1.70000000E+00  1.70000000E+00  1.50000000E+00  1.70000000E+00  1.70000000E+00
  1.70000000E+00  1.70000000E+00  1.55000000E+00  1.70000000E+00  1.70000000E+00
  1.70000000E+00  1.70000000E+00  1.30000000E+00  1.30000000E+00  1.30000000E+00
  1.30000000E+00  1.30000000E+00  1.30000000E+00  1.30000000E+00  1.30000000E+00
  1.30000000E+00  1.30000000E+00  1.50000000E+00  1.70000000E+00  1.70000000E+00
  1.50000000E+00  1.70000000E+00  1.70000000E+00  1.70000000E+00  1.70000000E+00
  1.50000000E+00  1.70000000E+00  1.70000000E+00  1.70000000E+00  1.70000000E+00
  1.70000000E+00  1.50000000E+00  1.70000000E+00  1.50000000E+00  1.70000000E+00
  1.70000000E+00  1.70000000E+00  1.70000000E+00  1.30000000E+00  1.30000000E+00
  1.30000000E+00  1.30000000E+00  1.30000000E+00  1.30000000E+00  1.55000000E+00
  1.70000000E+00  1.70000000E+00  1.70000000E+00  1.55000000E+00  1.70000000E+00
  1.70000000E+00  1.70000000E+00  1.50000000E+00  1.55000000E+00  1.70000000E+00
  1.70000000E+00  1.70000000E+00  1.70000000E+00  1.70000000E+00  1.70000000E+00
  1.50000000E+00  1.70000000E+00  1.50000000E+00  1.70000000E+00  1.70000000E+00
  1.30000000E+00  1.30000000E+00  1.30000000E+00  1.30000000E+00  1.30000000E+00
  1.30000000E+00  1.30000000E+00  1.30000000E+00  1.30000000E+00  8.00000000E-01
  8.00000000E-01  1.30000000E+00  1.30000000E+00  1.50000000E+00  1.70000000E+00
  1.70000000E+00  1.50000000E+00  1.70000000E+00  1.70000000E+00  1.70000000E+00
  1.70000000E+00  1.50000000E+00  1.70000000E+00  1.70000000E+00  1.70000000E+00
  1.70000000E+00  1.70000000E+00  1.50000000E+00  1.70000000E+00  1.50000000E+00
  1.70000000E+00  1.70000000E+00  1.70000000E+00  1.70000000E+00  1.30000000E+00
  1.30000000E+00  1.30000000E+00  1.30000000E+00  1.30000000E+00  1.30000000E+00
  1.55000000E+00  1.70000000E+00  1.70000000E+00  1.70000000E+00  1.70000000E+00
  1.50000000E+00  1.70000000E+00  1.70000000E+00  1.70000000E+00  1.70000000E+00
  1.55000000E+00  1.70000000E+00  1.70000000E+00  1.70000000E+00  1.70000000E+00
  1.30000000E+00  1.30000000E+00  1.30000000E+00  1.30000000E+00  1.30000000E+00
  1.30000000E+00  1.30000000E+00  1.30000000E+00  1.50000000E+00  1.70000000E+00
  1.70000000E+00  1.50000000E+00  1.70000000E+00  1.70000000E+00  1.70000000E+00
  1.70000000E+00  1.50000000E+00  1.70000000E+00  1.70000000E+00  1.70000000E+00
  1.70000000E+00  1.70000000E+00  1.50000000E+00  1.70000000E+00  1.50000000E+00
  1.70000000E+00  1.70000000E+00  1.70000000E+00  1.70000000E+00  1.30000000E+00
  1.30000000E+00  1.30000000E+00  1.30000000E+00  1.30000000E+00  1.30000000E+00
  1.55000000E+00  1.70000000E+00  1.70000000E+00  1.70000000E+00  1.70000000E+00
  1.50000000E+00  1.70000000E+00  1.70000000E+00  1.70000000E+00  1.70000000E+00
  1.55000000E+00  1.70000000E+00  1.70000000E+00  1.70000000E+00  1.70000000E+00
  1.30000000E+00  1.30000000E+00  1.30000000E+00  1.30000000E+00  1.30000000E+00
  1.30000000E+00  1.30000000E+00  1.30000000E+00  1.50000000E+00  1.70000000E+00
  1.70000000E+00  1.50000000E+00  1.70000000E+00  1.70000000E+00  1.70000000E+00
  1.70000000E+00  1.50000000E+00  1.70000000E+00  1.70000000E+00  1.70000000E+00
  1.70000000E+00  1.70000000E+00  1.50000000E+00  1.70000000E+00  1.50000000E+00
  1.70000000E+00  1.70000000E+00  1.70000000E+00  1.70000000E+00  1.30000000E+00
  1.30000000E+00  1.30000000E+00  1.30000000E+00  1.30000000E+00  1.30000000E+00
  1.55000000E+00  1.70000000E+00  1.70000000E+00  1.70000000E+00  1.70000000E+00
  1.50000000E+00  1.70000000E+00  1.70000000E+00  1.70000000E+00  1.70000000E+00
  1.55000000E+00  1.70000000E+00  1.70000000E+00  1.70000000E+00  1.70000000E+00
  1.30000000E+00  1.30000000E+00  1.30000000E+00  1.30000000E+00  1.30000000E+00
  1.30000000E+00  1.30000000E+00  1.30000000E+00  1.50000000E+00  1.70000000E+00
  1.70000000E+00  1.50000000E+00  1.70000000E+00  1.70000000E+00  1.70000000E+00
  1.70000000E+00  1.50000000E+00  1.70000000E+00  1.70000000E+00  1.70000000E+00
  1.70000000E+00  1.70000000E+00  1.50000000E+00  1.70000000E+00  1.50000000E+00
  1.70000000E+00  1.70000000E+00  1.70000000E+00  1.70000000E+00  1.30000000E+00
  1.30000000E+00  1.30000000E+00  1.30000000E+00  1.30000000E+00  1.30000000E+00
  1.55000000E+00  1.70000000E+00  1.70000000E+00  1.70000000E+00  1.70000000E+00
  1.50000000E+00  1.70000000E+00  1.70000000E+00  1.70000000E+00  1.70000000E+00
  1.55000000E+00  1.70000000E+00  1.70000000E+00  1.70000000E+00  1.70000000E+00
  1.30000000E+00  1.30000000E+00  1.30000000E+00  1.30000000E+00  1.30000000E+00
  1.30000000E+00  1.30000000E+00  1.30000000E+00  1.50000000E+00  1.70000000E+00
  1.70000000E+00  1.50000000E+00  1.70000000E+00  1.70000000E+00  1.70000000E+00
  1.70000000E+00  1.50000000E+00  1.70000000E+00  1.70000000E+00  1.70000000E+00
  1.70000000E+00  1.70000000E+00  1.50000000E+00  1.70000000E+00  1.50000000E+00
  1.70000000E+00  1.70000000E+00  1.70000000E+00  1.70000000E+00  1.30000000E+00
  1.30000000E+00  1.30000000E+00  1.30000000E+00  1.30000000E+00  1.30000000E+00
  1.55000000E+00  1.70000000E+00  1.70000000E+00  1.70000000E+00  1.70000000E+00
  1.50000000E+00  1.70000000E+00  1.70000000E+00  1.70000000E+00  1.70000000E+00
  1.55000000E+00  1.70000000E+00  1.70000000E+00  1.70000000E+00  1.70000000E+00
  1.30000000E+00  1.30000000E+00  1.30000000E+00  1.30000000E+00  1.30000000E+00
  1.30000000E+00  1.30000000E+00  1.30000000E+00  1.50000000E+00  1.70000000E+00
  1.70000000E+00  1.50000000E+00  1.70000000E+00  1.70000000E+00  1.70000000E+00
  1.70000000E+00  1.50000000E+00  1.70000000E+00  1.70000000E+00  1.70000000E+00
  1.70000000E+00  1.70000000E+00  1.50000000E+00  1.70000000E+00  1.50000000E+00
  1.70000000E+00  1.70000000E+00  1.70000000E+00  1.70000000E+00  1.30000000E+00
  1.30000000E+00  1.30000000E+00  1.30000000E+00  1.30000000E+00  1.30000000E+00
  1.55000000E+00  1.70000000E+00  1.70000000E+00  1.70000000E+00  1.55000000E+00
  1.70000000E+00  1.70000000E+00  1.70000000E+00  1.50000000E+00  1.55000000E+00
  1.70000000E+00  1.70000000E+00  1.70000000E+00  1.70000000E+00  1.70000000E+00
  1.70000000E+00  1.50000000E+00  1.70000000E+00  1.50000000E+00  1.70000000E+00
  1.70000000E+00  1.30000000E+00  1.30000000E+00  1.30000000E+00  1.30000000E+00
  1.30000000E+00  1.30000000E+00  1.30000000E+00  1.30000000E+00  1.30000000E+00
  8.00000000E-01  8.00000000E-01  1.30000000E+00  1.30000000E+00  1.50000000E+00
  1.70000000E+00  1.70000000E+00  1.50000000E+00  1.70000000E+00  1.70000000E+00
  1.70000000E+00  1.70000000E+00  1.50000000E+00  1.70000000E+00  1.70000000E+00
  1.70000000E+00  1.70000000E+00  1.70000000E+00  1.50000000E+00  1.70000000E+00
  1.50000000E+00  1.70000000E+00  1.70000000E+00  1.70000000E+00  1.70000000E+00
  1.30000000E+00  1.30000000E+00  1.30000000E+00  1.30000000E+00  1.30000000E+00
  1.30000000E+00  1.55000000E+00  1.70000000E+00  1.70000000E+00  1.70000000E+00
  1.70000000E+00  1.50000000E+00  1.70000000E+00  1.70000000E+00  1.70000000E+00
  1.70000000E+00  1.55000000E+00  1.70000000E+00  1.70000000E+00  1.70000000E+00
  1.70000000E+00  1.30000000E+00  1.30000000E+00  1.30000000E+00  1.30000000E+00
  1.30000000E+00  1.30000000E+00  1.30000000E+00  1.30000000E+00  1.30000000E+00
  1.30000000E+00  1.55000000E+00  1.70000000E+00  1.70000000E+00  1.70000000E+00
  1.70000000E+00  1.50000000E+00  1.70000000E+00  1.70000000E+00  1.70000000E+00
  1.70000000E+00  1.55000000E+00  1.70000000E+00  1.70000000E+00  1.70000000E+00
  1.70000000E+00  1.30000000E+00  1.30000000E+00  1.30000000E+00  1.30000000E+00
  1.30000000E+00  1.30000000E+00  1.30000000E+00  1.30000000E+00  1.30000000E+00
  1.30000000E+00  1.50000000E+00  1.70000000E+00  1.70000000E+00  1.50000000E+00
  1.70000000E+00  1.70000000E+00  1.70000000E+00  1.70000000E+00  1.50000000E+00
  1.70000000E+00  1.70000000E+00  1.70000000E+00  1.70000000E+00  1.70000000E+00
  1.50000000E+00  1.70000000E+00  1.50000000E+00  1.70000000E+00  1.70000000E+00
  1.70000000E+00  1.70000000E+00  1.30000000E+00  1.30000000E+00  1.30000000E+00
  1.30000000E+00  1.30000000E+00  1.30000000E+00  1.55000000E+00  1.70000000E+00
  1.70000000E+00  1.70000000E+00  1.55000000E+00  1.70000000E+00  1.70000000E+00
  1.70000000E+00  1.50000000E+00  1.55000000E+00  1.70000000E+00  1.70000000E+00
  1.70000000E+00  1.70000000E+00  1.70000000E+00  1.70000000E+00  1.50000000E+00
  1.70000000E+00  1.50000000E+00  1.70000000E+00  1.70000000E+00  1.30000000E+00
  1.30000000E+00  1.30000000E+00  1.30000000E+00  1.30000000E+00  1.30000000E+00
  1.30000000E+00  1.30000000E+00  1.30000000E+00  8.00000000E-01  8.00000000E-01
  1.30000000E+00  1.30000000E+00  1.50000000E+00  1.70000000E+00  1.70000000E+00
  1.50000000E+00  1.70000000E+00  1.70000000E+00  1.70000000E+00  1.70000000E+00
  1.50000000E+00  1.70000000E+00  1.70000000E+00  1.70000000E+00  1.70000000E+00
  1.70000000E+00  1.50000000E+00  1.70000000E+00  1.50000000E+00  1.70000000E+00
  1.70000000E+00  1.70000000E+00  1.70000000E+00  1.30000000E+00  1.30000000E+00
  1.30000000E+00  1.30000000E+00  1.30000000E+00  1.30000000E+00  1.55000000E+00
  1.70000000E+00  1.70000000E+00  1.70000000E+00  1.70000000E+00  1.50000000E+00
  1.70000000E+00  1.70000000E+00  1.70000000E+00  1.70000000E+00  1.55000000E+00
  1.70000000E+00  1.70000000E+00  1.70000000E+00  1.70000000E+00  1.30000000E+00
  1.30000000E+00  1.30000000E+00  1.30000000E+00  1.30000000E+00  1.30000000E+00
  1.30000000E+00  1.30000000E+00  1.50000000E+00  1.70000000E+00  1.70000000E+00
  1.50000000E+00  1.70000000E+00  1.70000000E+00  1.70000000E+00  1.70000000E+00
  1.50000000E+00  1.70000000E+00  1.70000000E+00  1.70000000E+00  1.70000000E+00
  1.70000000E+00  1.50000000E+00  1.70000000E+00  1.50000000E+00  1.70000000E+00
  1.70000000E+00  1.70000000E+00  1.70000000E+00  1.30000000E+00  1.30000000E+00
  1.30000000E+00  1.30000000E+00  1.30000000E+00  1.30000000E+00  1.55000000E+00
  1.70000000E+00  1.70000000E+00  1.70000000E+00  1.70000000E+00  1.50000000E+00
  1.70000000E+00  1.70000000E+00  1.70000000E+00  1.70000000E+00  1.55000000E+00
  1.70000000E+00  1.70000000E+00  1.70000000E+00  1.70000000E+00  1.30000000E+00
  1.30000000E+00  1.30000000E+00  1.30000000E+00  1.30000000E+00  1.30000000E+00
  1.30000000E+00  1.30000000E+00  1.50000000E+00  1.70000000E+00  1.70000000E+00
  1.50000000E+00  1.70000000E+00  1.70000000E+00  1.70000000E+00  1.70000000E+00
  1.50000000E+00  1.70000000E+00  1.70000000E+00  1.70000000E+00  1.70000000E+00
  1.70000000E+00  1.50000000E+00  1.70000000E+00  1.50000000E+00  1.70000000E+00
  1.70000000E+00  1.70000000E+00  1.70000000E+00  1.30000000E+00  1.30000000E+00
  1.30000000E+00  1.30000000E+00  1.30000000E+00  1.30000000E+00  1.55000000E+00
  1.70000000E+00  1.70000000E+00  1.70000000E+00  1.70000000E+00  1.50000000E+00
  1.70000000E+00  1.70000000E+00  1.70000000E+00  1.70000000E+00  1.55000000E+00
  1.70000000E+00  1.70000000E+00  1.70000000E+00  1.70000000E+00  1.30000000E+00
  1.30000000E+00  1.30000000E+00  1.30000000E+00  1.30000000E+00  1.30000000E+00
  1.30000000E+00  1.30000000E+00  1.50000000E+00  1.70000000E+00  1.70000000E+00
  1.50000000E+00  1.70000000E+00  1.70000000E+00  1.70000000E+00  1.70000000E+00
  1.50000000E+00  1.70000000E+00  1.70000000E+00  1.70000000E+00  1.70000000E+00
  1.70000000E+00  1.50000000E+00  1.70000000E+00  1.50000000E+00  1.70000000E+00
  1.70000000E+00  1.70000000E+00  1.70000000E+00  1.30000000E+00  1.30000000E+00
  1.30000000E+00  1.30000000E+00  1.30000000E+00  1.30000000E+00  1.55000000E+00
  1.70000000E+00  1.70000000E+00  1.70000000E+00  1.70000000E+00  1.50000000E+00
  1.70000000E+00  1.70000000E+00  1.70000000E+00  1.70000000E+00  1.55000000E+00
  1.70000000E+00  1.70000000E+00  1.70000000E+00  1.70000000E+00  1.30000000E+00
  1.30000000E+00  1.30000000E+00  1.30000000E+00  1.30000000E+00  1.30000000E+00
  1.30000000E+00  1.30000000E+00  1.50000000E+00  1.70000000E+00  1.70000000E+00
  1.50000000E+00  1.70000000E+00  1.70000000E+00  1.70000000E+00  1.70000000E+00
  1.50000000E+00  1.70000000E+00  1.70000000E+00  1.70000000E+00  1.70000000E+00
  1.70000000E+00  1.50000000E+00  1.70000000E+00  1.50000000E+00  1.70000000E+00
  1.70000000E+00  1.70000000E+00  1.70000000E+00  1.30000000E+00  1.30000000E+00
  1.30000000E+00  1.30000000E+00  1.30000000E+00  1.30000000E+00  1.55000000E+00
  1.70000000E+00  1.70000000E+00  1.70000000E+00  1.70000000E+00  1.50000000E+00
  1.70000000E+00  1.70000000E+00  1.70000000E+00  1.70000000E+00  1.55000000E+00
  1.70000000E+00  1.70000000E+00  1.70000000E+00  1.70000000E+00  1.30000000E+00
  1.30000000E+00  1.30000000E+00  1.30000000E+00  1.30000000E+00  1.30000000E+00
  1.30000000E+00  1.30000000E+00  1.50000000E+00  1.70000000E+00  1.70000000E+00
  1.50000000E+00  1.70000000E+00  1.70000000E+00  1.70000000E+00  1.70000000E+00
  1.50000000E+00  1.70000000E+00  1.70000000E+00  1.70000000E+00  1.70000000E+00
  1.70000000E+00  1.50000000E+00  1.70000000E+00  1.50000000E+00  1.70000000E+00
  1.70000000E+00  1.70000000E+00  1.70000000E+00  1.30000000E+00  1.30000000E+00
  1.30000000E+00  1.30000000E+00  1.30000000E+00  1.30000000E+00  1.55000000E+00
  1.70000000E+00  1.70000000E+00  1.70000000E+00  1.55000000E+00  1.70000000E+00
  1.70000000E+00  1.70000000E+00  1.50000000E+00  1.55000000E+00  1.70000000E+00
  1.70000000E+00  1.70000000E+00  1.70000000E+00  1.70000000E+00  1.70000000E+00
  1.50000000E+00  1.70000000E+00  1.50000000E+00  1.70000000E+00  1.70000000E+00
  1.30000000E+00  1.30000000E+00  1.30000000E+00  1.30000000E+00  1.30000000E+00
  1.30000000E+00  1.30000000E+00  1.30000000E+00  1.30000000E+00  8.00000000E-01
  8.00000000E-01  1.30000000E+00  1.30000000E+00  1.50000000E+00  1.70000000E+00
  1.70000000E+00  1.50000000E+00  1.70000000E+00  1.70000000E+00  1.70000000E+00
  1.70000000E+00  1.50000000E+00  1.70000000E+00  1.70000000E+00  1.70000000E+00
  1.70000000E+00  1.70000000E+00  1.50000000E+00  1.70000000E+00  1.50000000E+00
  1.70000000E+00  1.70000000E+00  1.70000000E+00  1.70000000E+00  1.30000000E+00
  1.30000000E+00  1.30000000E+00  1.30000000E+00  1.30000000E+00  1.30000000E+00
  1.55000000E+00  1.70000000E+00  1.70000000E+00  1.70000000E+00  1.70000000E+00
  1.50000000E+00  1.70000000E+00  1.70000000E+00  1.70000000E+00  1.70000000E+00
  1.55000000E+00  1.70000000E+00  1.70000000E+00  1.70000000E+00  1.70000000E+00
  1.30000000E+00  1.30000000E+00  1.30000000E+00  1.30000000E+00  1.30000000E+00
  1.30000000E+00  1.30000000E+00  1.30000000E+00  1.30000000E+00  1.30000000E+00
  1.55000000E+00  1.70000000E+00  1.70000000E+00  1.70000000E+00  1.70000000E+00
  1.50000000E+00  1.70000000E+00  1.70000000E+00  1.70000000E+00  1.70000000E+00
  1.55000000E+00  1.70000000E+00  1.70000000E+00  1.70000000E+00  1.70000000E+00
  1.30000000E+00  1.30000000E+00  1.30000000E+00  1.30000000E+00  1.30000000E+00
  1.30000000E+00  1.30000000E+00  1.30000000E+00  1.30000000E+00  1.30000000E+00
  1.50000000E+00  1.70000000E+00  1.70000000E+00  1.50000000E+00  1.70000000E+00
  1.70000000E+00  1.70000000E+00  1.70000000E+00  1.50000000E+00  1.70000000E+00
  1.70000000E+00  1.70000000E+00  1.70000000E+00  1.70000000E+00  1.50000000E+00
  1.70000000E+00  1.50000000E+00  1.70000000E+00  1.70000000E+00  1.70000000E+00
  1.70000000E+00  1.30000000E+00  1.30000000E+00  1.30000000E+00  1.30000000E+00
  1.30000000E+00  1.30000000E+00  1.55000000E+00  1.70000000E+00  1.70000000E+00
  1.70000000E+00  1.55000000E+00  1.70000000E+00  1.70000000E+00  1.70000000E+00
  1.50000000E+00  1.55000000E+00  1.70000000E+00  1.70000000E+00  1.70000000E+00
  1.70000000E+00  1.70000000E+00  1.70000000E+00  1.50000000E+00  1.70000000E+00
  1.50000000E+00  1.70000000E+00  1.70000000E+00  1.30000000E+00  1.30000000E+00
  1.30000000E+00  1.30000000E+00  1.30000000E+00  1.30000000E+00  1.30000000E+00
  1.30000000E+00  1.30000000E+00  8.00000000E-01  8.00000000E-01  1.30000000E+00
  1.30000000E+00  1.50000000E+00  1.70000000E+00  1.70000000E+00  1.50000000E+00
  1.70000000E+00  1.70000000E+00  1.70000000E+00  1.70000000E+00  1.50000000E+00
  1.70000000E+00  1.70000000E+00  1.70000000E+00  1.70000000E+00  1.70000000E+00
  1.50000000E+00  1.70000000E+00  1.50000000E+00  1.70000000E+00  1.70000000E+00
  1.70000000E+00  1.70000000E+00  1.30000000E+00  1.30000000E+00  1.30000000E+00
  1.30000000E+00  1.30000000E+00  1.30000000E+00  1.55000000E+00  1.70000000E+00
  1.70000000E+00  1.70000000E+00  1.70000000E+00  1.50000000E+00  1.70000000E+00
  1.70000000E+00  1.70000000E+00  1.70000000E+00  1.55000000E+00  1.70000000E+00
  1.70000000E+00  1.70000000E+00  1.70000000E+00  1.30000000E+00  1.30000000E+00
  1.30000000E+00  1.30000000E+00  1.30000000E+00  1.30000000E+00  1.30000000E+00
  1.30000000E+00  1.50000000E+00  1.70000000E+00  1.70000000E+00  1.50000000E+00
  1.70000000E+00  1.70000000E+00  1.70000000E+00  1.70000000E+00  1.50000000E+00
  1.70000000E+00  1.70000000E+00  1.70000000E+00  1.70000000E+00  1.70000000E+00
  1.50000000E+00  1.70000000E+00  1.50000000E+00  1.70000000E+00  1.70000000E+00
  1.70000000E+00  1.70000000E+00  1.30000000E+00  1.30000000E+00  1.30000000E+00
  1.30000000E+00  1.30000000E+00  1.30000000E+00  1.55000000E+00  1.70000000E+00
  1.70000000E+00  1.70000000E+00  1.70000000E+00  1.50000000E+00  1.70000000E+00
  1.70000000E+00  1.70000000E+00  1.70000000E+00  1.55000000E+00  1.70000000E+00
  1.70000000E+00  1.70000000E+00  1.70000000E+00  1.30000000E+00  1.30000000E+00
  1.30000000E+00  1.30000000E+00  1.30000000E+00  1.30000000E+00  1.30000000E+00
  1.30000000E+00  1.50000000E+00  1.70000000E+00  1.70000000E+00  1.50000000E+00
  1.70000000E+00  1.70000000E+00  1.70000000E+00  1.70000000E+00  1.50000000E+00
  1.70000000E+00  1.70000000E+00  1.70000000E+00  1.70000000E+00  1.70000000E+00
  1.50000000E+00  1.70000000E+00  1.50000000E+00  1.70000000E+00  1.70000000E+00
  1.70000000E+00  1.70000000E+00  1.30000000E+00  1.30000000E+00  1.30000000E+00
  1.30000000E+00  1.30000000E+00  1.30000000E+00  1.55000000E+00  1.70000000E+00
  1.70000000E+00  1.70000000E+00  1.70000000E+00  1.50000000E+00  1.70000000E+00
  1.70000000E+00  1.70000000E+00  1.70000000E+00  1.55000000E+00  1.70000000E+00
  1.70000000E+00  1.70000000E+00  1.70000000E+00  1.30000000E+00  1.30000000E+00
  1.30000000E+00  1.30000000E+00  1.30000000E+00  1.30000000E+00  1.30000000E+00
  1.30000000E+00  1.50000000E+00  1.70000000E+00  1.70000000E+00  1.50000000E+00
  1.70000000E+00  1.70000000E+00  1.70000000E+00  1.70000000E+00  1.50000000E+00
  1.70000000E+00  1.70000000E+00  1.70000000E+00  1.70000000E+00  1.70000000E+00
  1.50000000E+00  1.70000000E+00  1.50000000E+00  1.70000000E+00  1.70000000E+00
  1.70000000E+00  1.70000000E+00  1.30000000E+00  1.30000000E+00  1.30000000E+00
  1.30000000E+00  1.30000000E+00  1.30000000E+00  1.55000000E+00  1.70000000E+00
  1.70000000E+00  1.70000000E+00  1.70000000E+00  1.50000000E+00  1.70000000E+00
  1.70000000E+00  1.70000000E+00  1.70000000E+00  1.55000000E+00  1.70000000E+00
  1.70000000E+00  1.70000000E+00  1.70000000E+00  1.30000000E+00  1.30000000E+00
  1.30000000E+00  1.30000000E+00  1.30000000E+00  1.30000000E+00  1.30000000E+00
  1.30000000E+00  1.50000000E+00  1.70000000E+00  1.70000000E+00  1.50000000E+00
  1.70000000E+00  1.70000000E+00  1.70000000E+00  1.70000000E+00  1.50000000E+00
  1.70000000E+00  1.70000000E+00  1.70000000E+00  1.70000000E+00  1.70000000E+00
  1.50000000E+00  1.70000000E+00  1.50000000E+00  1.70000000E+00  1.70000000E+00
  1.70000000E+00  1.70000000E+00  1.30000000E+00  1.30000000E+00  1.30000000E+00
  1.30000000E+00  1.30000000E+00  1.30000000E+00  1.55000000E+00  1.70000000E+00
  1.70000000E+00  1.70000000E+00  1.70000000E+00  1.50000000E+00  1.70000000E+00
  1.70000000E+00  1.70000000E+00  1.70000000E+00  1.55000000E+00  1.70000000E+00
  1.70000000E+00  1.70000000E+00  1.70000000E+00  1.30000000E+00  1.30000000E+00
  1.30000000E+00  1.30000000E+00  1.30000000E+00  1.30000000E+00  1.30000000E+00
  1.30000000E+00  1.50000000E+00  1.70000000E+00  1.70000000E+00  1.50000000E+00
  1.70000000E+00  1.70000000E+00  1.70000000E+00  1.70000000E+00  1.50000000E+00
  1.70000000E+00  1.70000000E+00  1.70000000E+00  1.70000000E+00  1.70000000E+00
  1.50000000E+00  1.70000000E+00  1.50000000E+00  1.70000000E+00  1.70000000E+00
  1.70000000E+00  1.70000000E+00  1.30000000E+00  1.30000000E+00  1.30000000E+00
  1.30000000E+00  1.30000000E+00  1.30000000E+00  1.55000000E+00  1.70000000E+00
  1.70000000E+00  1.70000000E+00  1.55000000E+00  1.70000000E+00  1.70000000E+00
  1.70000000E+00  1.50000000E+00  1.55000000E+00  1.70000000E+00  1.70000000E+00
  1.70000000E+00  1.70000000E+00  1.70000000E+00  1.70000000E+00  1.50000000E+00
  1.70000000E+00  1.50000000E+00  1.70000000E+00  1.70000000E+00  1.30000000E+00
  1.30000000E+00  1.30000000E+00  1.30000000E+00  1.30000000E+00  1.30000000E+00
  1.30000000E+00  1.30000000E+00  1.30000000E+00  8.00000000E-01  8.00000000E-01
  1.30000000E+00  1.30000000E+00  1.50000000E+00  1.70000000E+00  1.70000000E+00
  1.50000000E+00  1.70000000E+00  1.70000000E+00  1.70000000E+00  1.70000000E+00
  1.50000000E+00  1.70000000E+00  1.70000000E+00  1.70000000E+00  1.70000000E+00
  1.70000000E+00  1.50000000E+00  1.70000000E+00  1.50000000E+00  1.70000000E+00
  1.70000000E+00  1.70000000E+00  1.70000000E+00  1.30000000E+00  1.30000000E+00
  1.30000000E+00  1.30000000E+00  1.30000000E+00  1.30000000E+00  1.55000000E+00
  1.70000000E+00  1.70000000E+00  1.70000000E+00  1.70000000E+00  1.50000000E+00
  1.70000000E+00  1.70000000E+00  1.70000000E+00  1.70000000E+00  1.55000000E+00
  1.70000000E+00  1.70000000E+00  1.70000000E+00  1.70000000E+00  1.30000000E+00
  1.30000000E+00  1.30000000E+00  1.30000000E+00  1.30000000E+00  1.30000000E+00
  1.30000000E+00  1.30000000E+00  1.30000000E+00  1.30000000E+00
%FLAG SCREEN                                                                    
%FORMAT(5E16.8)                                                                 
  7.90000000E-01  7.20000000E-01  7.20000000E-01  7.20000000E-01  7.20000000E-01
  8.50000000E-01  7.20000000E-01  7.20000000E-01  7.20000000E-01  7.20000000E-01
  7.90000000E-01  7.20000000E-01  7.20000000E-01  7.20000000E-01  7.20000000E-01
  8.50000000E-01  8.50000000E-01  8.50000000E-01  8.50000000E-01  8.50000000E-01
  8.50000000E-01  8.50000000E-01  8.50000000E-01  8.50000000E-01  8.50000000E-01
  8.50000000E-01  7.20000000E-01  7.20000000E-01  8.50000000E-01  7.20000000E-01
  7.20000000E-01  7.20000000E-01  7.20000000E-01  8.50000000E-01  7.20000000E-01
  7.20000000E-01  7.20000000E-01  7.20000000E-01  7.20000000E-01  8.50000000E-01
  7.20000000E-01  8.50000000E-01  7.20000000E-01  7.20000000E-01  7.20000000E-01
  7.20000000E-01  8.50000000E-01  8.50000000E-01  8.50000000E-01  8.50000000E-01
  8.50000000E-01  8.50000000E-01  7.90000000E-01  7.20000000E-01  7.20000000E-01
  7.20000000E-01  7.90000000E-01  7.20000000E-01  7.20000000E-01  7.20000000E-01
  8.50000000E-01  7.90000000E-01  7.20000000E-01  7.20000000E-01  7.20000000E-01
  7.20000000E-01  7.20000000E-01  7.20000000E-01  8.50000000E-01  7.20000000E-01
  8.50000000E-01  7.20000000E-01  7.20000000E-01  8.50000000E-01  8.50000000E-01
  8.50000000E-01  8.50000000E-01  8.50000000E-01  8.50000000E-01  8.50000000E-01
  8.50000000E-01  8.50000000E-01  8.50000000E-01  8.50000000E-01  8.50000000E-01
  8.50000000E-01  8.50000000E-01  7.20000000E-01  7.20000000E-01  8.50000000E-01
  7.20000000E-01  7.20000000E-01  7.20000000E-01  7.20000000E-01  8.50000000E-01
  7.20000000E-01  7.20000000E-01  7.20000000E-01  7.20000000E-01  7.20000000E-01
  8.50000000E-01  7.20000000E-01  8.50000000E-01  7.20000000E-01  7.20000000E-01
  7.20000000E-01  7.20000000E-01  8.50000000E-01  8.50000000E-01  8.50000000E-01
  8.50000000E-01  8.50000000E-01  8.50000000E-01  7.90000000E-01  7.20000000E-01
  7.20000000E-01  7.20000000E-01  7.20000000E-01  8.50000000E-01  7.20000000E-01
  7.20000000E-01  7.20000000E-01  7.20000000E-01  7.90000000E-01  7.20000000E-01
  7.20000000E-01  7.20000000E-01  7.20000000E-01  8.50000000E-01  8.50000000E-01
  8.50000000E-01  8.50000000E-01  8.50000000E-01  8.50000000E-01  8.50000000E-01
  8.50000000E-01  8.50000000E-01  7.20000000E-01  7.20000000E-01  8.50000000E-01
  7.20000000E-01  7.20000000E-01  7.20000000E-01  7.20000000E-01  8.50000000E-01
  7.20000000E-01  7.20000000E-01  7.20000000E-01  7.20000000E-01  7.20000000E-01
  8.50000000E-01  7.20000000E-01  8.50000000E-01  7.20000000E-01  7.20000000E-01
  7.20000000E-01  7.20000000E-01  8.50000000E-01  8.50000000E-01  8.50000000E-01
  8.50000000E-01  8.50000000E-01  8.50000000E-01  7.90000000E-01  7.20000000E-01
  7.20000000E-01  7.20000000E-01  7.20000000E-01  8.50000000E-01  7.20000000E-01
  7.20000000E-01  7.20000000E-01  7.20000000E-01  7.90000000E-01  7.20000000E-01
  7.20000000E-01  7.20000000E-01  7.20000000E-01  8.50000000E-01  8.50000000E-01
  8.50000000E-01  8.50000000E-01  8.50000000E-01  8.50000000E-01  8.50000000E-01
  8.50000000E-01  8.50000000E-01  7.20000000E-01  7.20000000E-01  8.50000000E-01
  7.20000000E-01  7.20000000E-01  7.20000000E-01  7.20000000E-01  8.50000000E-01
  7.20000000E-01  7.20000000E-01  7.20000000E-01  7.20000000E-01  7.20000000E-01
  8.50000000E-01  7.20000000E-01  8.50000000E-01  7.20000000E-01  7.20000000E-01
  7.20000000E-01  7.20000000E-01  8.50000000E-01  8.50000000E-01  8.50000000E-01
  8.50000000E-01  8.50000000E-01  8.50000000E-01  7.90000000E-01  7.20000000E-01
  7.20000000E-01  7.20000000E-01  7.20000000E-01  8.50000000E-01  7.20000000E-01
  7.20000000E-01  7.20000000E-01  7.20000000E-01  7.90000000E-01  7.20000000E-01
  7.20000000E-01  7.20000000E-01  7.20000000E-01  8.50000000E-01  8.50000000E-01
  8.50000000E-01  8.50000000E-01  8.50000000E-01  8.50000000E-01  8.50000000E-01
  8.50000000E-01  8.50000000E-01  7.20000000E-01  7.20000000E-01  8.50000000E-01
  7.20000000E-01  7.20000000E-01  7.20000000E-01  7.20000000E-01  8.50000000E-01
  7.20000000E-01  7.20000000E-01  7.20000000E-01  7.20000000E-01  7.20000000E-01
  8.50000000E-01  7.20000000E-01  8.50000000E-01  7.20000000E-01  7.20000000E-01
  7.20000000E-01  7.20000000E-01  8.50000000E-01  8.50000000E-01  8.50000000E-01
  8.50000000E-01  8.50000000E-01  8.50000000E-01  7.90000000E-01  7.20000000E-01
  7.20000000E-01  7.20000000E-01  7.20000000E-01  8.50000000E-01  7.20000000E-01
  7.20000000E-01  7.20000000E-01  7.20000000E-01  7.90000000E-01  7.20000000E-01
  7.20000000E-01  7.20000000E-01  7.20000000E-01  8.50000000E-01  8.50000000E-01
  8.50000000E-01  8.50000000E-01  8.50000000E-01  8.50000000E-01  8.50000000E-01
  8.50000000E-01  8.50000000E-01  7.20000000E-01  7.20000000E-01  8.50000000E-01
  7.20000000E-01  7.20000000E-01  7.20000000E-01  7.20000000E-01  8.50000000E-01
  7.20000000E-01  7.20000000E-01  7.20000000E-01  7.20000000E-01  7.20000000E-01
  8.50000000E-01  7.20000000E-01  8.50000000E-01  7.20000000E-01  7.20000000E-01
  7.20000000E-01  7.20000000E-01  8.50000000E-01  8.50000000E-01  8.50000000E-01
  8.50000000E-01  8.50000000E-01  8.50000000E-01  7.90000000E-01  7.20000000E-01
  7.20000000E-01  7.20000000E-01  7.20000000E-01  8.50000000E-01  7.20000000E-01
  7.20000000E-01  7.20000000E-01  7.20000000E-01  7.90000000E-01  7.20000000E-01
  7.20000000E-01  7.20000000E-01  7.20000000E-01  8.50000000E-01  8.50000000E-01
  8.50000000E-01  8.50000000E-01  8.50000000E-01  8.50000000E-01  8.50000000E-01
  8.50000000E-01  8.50000000E-01  7.20000000E-01  7.20000000E-01  8.50000000E-01
  7.20000000E-01  7.20000000E-01  7.20000000E-01  7.20000000E-01  8.50000000E-01
  7.20000000E-01  7.20000000E-01  7.20000000E-01  7.20000000E-01  7.20000000E-01
  8.50000000E-01  7.20000000E-01  8.50000000E-01  7.20000000E-01  7.20000000E-01
  7.20000000E-01  7.20000000E-01  8.50000000E-01  8.50000000E-01  8.50000000E-01
  8.50000000E-01  8.50000000E-01  8.50000000E-01  7.90000000E-01  7.20000000E-01
  7.20000000E-01  7.20000000E-01  7.90000000E-01  7.20000000E-01  7.20000000E-01
  7.20000000E-01  8.50000000E-01  7.90000000E-01  7.20000000E-01  7.20000000E-01
  7.20000000E-01  7.20000000E-01  7.20000000E-01  7.20000000E-01  8.50000000E-01
  7.20000000E-01  8.50000000E-01  7.20000000E-01  7.20000000E-01  8.50000000E-01
  8.50000000E-01  8.50000000E-01  8.50000000E-01  8.50000000E-01  8.50000000E-01
  8.50000000E-01  8.50000000E-01  8.50000000E-01  8.50000000E-01  8.50000000E-01
  8.50000000E-01  8.50000000E-01  8.50000000E-01  7.20000000E-01  7.20000000E-01
  8.50000000E-01  7.20000000E-01  7.20000000E-01  7.20000000E-01  7.20000000E-01
  8.50000000E-01  7.20000000E-01  7.20000000E-01  7.20000000E-01  7.20000000E-01
  7.20000000E-01  8.50000000E-01  7.20000000E-01  8.50000000E-01  7.20000000E-01
  7.20000000E-01  7.20000000E-01  7.20000000E-01  8.50000000E-01  8.50000000E-01
  8.50000000E-01  8.50000000E-01  8.50000000E-01  8.50000000E-01  7.90000000E-01
  7.20000000E-01  7.20000000E-01  7.20000000E-01  7.20000000E-01  8.50000000E-01
  7.20000000E-01  7.20000000E-01  7.20000000E-01  7.20000000E-01  7.90000000E-01
  7.20000000E-01  7.20000000E-01  7.20000000E-01  7.20000000E-01  8.50000000E-01
  8.50000000E-01  8.50000000E-01  8.50000000E-01  8.50000000E-01  8.50000000E-01
  8.50000000E-01  8.50000000E-01  8.50000000E-01  8.50000000E-01  7.90000000E-01
  7.20000000E-01  7.20000000E-01  7.20000000E-01  7.20000000E-01  8.50000000E-01
  7.20000000E-01  7.20000000E-01  7.20000000E-01  7.20000000E-01  7.90000000E-01
  7.20000000E-01  7.20000000E-01  7.20000000E-01  7.20000000E-01  8.50000000E-01
  8.50000000E-01  8.50000000E-01  8.50000000E-01  8.50000000E-01  8.50000000E-01
  8.50000000E-01  8.50000000E-01  8.50000000E-01  8.50000000E-01  8.50000000E-01
  7.20000000E-01  7.20000000E-01  8.50000000E-01  7.20000000E-01  7.20000000E-01
  7.20000000E-01  7.20000000E-01  8.50000000E-01  7.20000000E-01  7.20000000E-01
  7.20000000E-01  7.20000000E-01  7.20000000E-01  8.50000000E-01  7.20000000E-01
  8.50000000E-01  7.20000000E-01  7.20000000E-01  7.20000000E-01  7.20000000E-01
  8.50000000E-01  8.50000000E-01  8.50000000E-01  8.50000000E-01  8.50000000E-01
  8.50000000E-01  7.90000000E-01  7.20000000E-01  7.20000000E-01  7.20000000E-01
  7.90000000E-01  7.20000000E-01  7.20000000E-01  7.20000000E-01  8.50000000E-01
  7.90000000E-01  7.20000000E-01  7.20000000E-01  7.20000000E-01  7.20000000E-01
  7.20000000E-01  7.20000000E-01  8.50000000E-01  7.20000000E-01  8.50000000E-01
  7.20000000E-01  7.20000000E-01  8.50000000E-01  8.50000000E-01  8.50000000E-01
  8.50000000E-01  8.50000000E-01  8.50000000E-01  8.50000000E-01  8.50000000E-01
  8.50000000E-01  8.50000000E-01  8.50000000E-01  8.50000000E-01  8.50000000E-01
  8.50000000E-01  7.20000000E-01  7.20000000E-01  8.50000000E-01  7.20000000E-01
  7.20000000E-01  7.20000000E-01  7.20000000E-01  8.50000000E-01  7.20000000E-01
  7.20000000E-01  7.20000000E-01  7.20000000E-01  7.20000000E-01  8.50000000E-01
  7.20000000E-01  8.50000000E-01  7.20000000E-01  7.20000000E-01  7.20000000E-01
  7.20000000E-01  8.50000000E-01  8.50000000E-01  8.50000000E-01  8.50000000E-01
  8.50000000E-01  8.50000000E-01  7.90000000E-01  7.20000000E-01  7.20000000E-01
  7.20000000E-01  7.20000000E-01  8.50000000E-01  7.20000000E-01  7.20000000E-01
  7.20000000E-01  7.20000000E-01  7.90000000E-01  7.20000000E-01  7.20000000E-01
  7.20000000E-01  7.20000000E-01  8.50000000E-01  8.50000000E-01  8.50000000E-01
  8.50000000E-01  8.50000000E-01  8.50000000E-01  8.50000000E-01  8.50000000E-01
  8.50000000E-01  7.20000000E-01  7.20000000E-01  8.50000000E-01  7.20000000E-01
  7.20000000E-01  7.20000000E-01  7.20000000E-01  8.50000000E-01  7.20000000E-01
  7.20000000E-01  7.20000000E-01  7.20000000E-01  7.20000000E-01  8.50000000E-01
  7.20000000E-01  8.50000000E-01  7.20000000E-01  7.20000000E-01  7.20000000E-01
  7.20000000E-01  8.50000000E-01  8.50000000E-01  8.50000000E-01  8.50000000E-01
  8.50000000E-01  8.50000000E-01  7.90000000E-01  7.20000000E-01  7.20000000E-01
  7.20000000E-01  7.20000000E-01  8.50000000E-01  7.20000000E-01  7.20000000E-01
  7.20000000E-01  7.20000000E-01  7.90000000E-01  7.20000000E-01  7.20000000E-01
  7.20000000E-01  7.20000000E-01  8.50000000E-01  8.50000000E-01  8.50000000E-01
  8.50000000E-01  8.50000000E-01  8.50000000E-01  8.50000000E-01  8.50000000E-01
  8.50000000E-01  7.20000000E-01  7.20000000E-01  8.50000000E-01  7.20000000E-01
  7.20000000E-01  7.20000000E-01  7.20000000E-01  8.50000000E-01  7.20000000E-01
  7.20000000E-01  7.20000000E-01  7.20000000E-01  7.20000000E-01  8.50000000E-01
  7.20000000E-01  8.50000000E-01  7.20000000E-01  7.20000000E-01  7.20000000E-01
  7.20000000E-01  8.50000000E-01  8.50000000E-01  8.50000000E-01  8.50000000E-01
  8.50000000E-01  8.50000000E-01  7.90000000E-01  7.20000000E-01  7.20000000E-01
  7.20000000E-01  7.20000000E-01  8.50000000E-01  7.20000000E-01  7.20000000E-01
  7.20000000E-01  7.20000000E-01  7.90000000E-01  7.20000000E-01  7.20000000E-01
  7.20000000E-01  7.20000000E-01  8.50000000E-01  8.50000000E-01  8.50000000E-01
  8.50000000E-01  8.50000000E-01  8.50000000E-01  8.50000000E-01  8.50000000E-01
  8.50000000E-01  7.20000000E-01  7.20000000E-01  8.50000000E-01  7.20000000E-01
  7.20000000E-01  7.20000000E-01  7.20000000E-01  8.50000000E-01  7.20000000E-01
  7.20000000E-01  7.20000000E-01  7.20000000E-01  7.20000000E-01  8.50000000E-01
  7.20000000E-01  8.50000000E-01  7.20000000E-01  7.20000000E-01  7.20000000E-01
  7.20000000E-01  8.50000000E-01  8.50000000E-01  8.50000000E-01  8.50000000E-01
  8.50000000E-01  8.50000000E-01  7.90000000E-01  7.20000000E-01  7.20000000E-01
  7.20000000E-01  7.20000000E-01  8.50000000E-01  7.20000000E-01  7.20000000E-01
  7.20000000E-01  7.20000000E-01  7.90000000E-01  7.20000000E-01  7.20000000E-01
  7.20000000E-01  7.20000000E-01  8.50000000E-01  8.50000000E-01  8.50000000E-01
  8.50000000E-01  8.50000000E-01  8.50000000E-01  8.50000000E-01  8.50000000E-01
  8.50000000E-01  7.20000000E-01  7.20000000E-01  8.50000000E-01  7.20000000E-01
  7.20000000E-01  7.20000000E-01  7.20000000E-01  8.50000000E-01  7.20000000E-01
  7.20000000E-01  7.20000000E-01  7.20000000E-01  7.20000000E-01  8.50000000E-01
  7.20000000E-01  8.50000000E-01  7.20000000E-01  7.20000000E-01  7.20000000E-01
  7.20000000E-01  8.50000000E-01  8.50000000E-01  8.50000000E-01  8.50000000E-01
  8.50000000E-01  8.50000000E-01  7.90000000E-01  7.20000000E-01  7.20000000E-01
  7.20000000E-01  7.20000000E-01  8.50000000E-01  7.20000000E-01  7.20000000E-01
  7.20000000E-01  7.20000000E-01  7.90000000E-01  7.20000000E-01  7.20000000E-01
  7.20000000E-01  7.20000000E-01  8.50000000E-01  8.50000000E-01  8.50000000E-01
  8.50000000E-01  8.50000000E-01  8.50000000E-01  8.50000000E-01  8.50000000E-01
  8.50000000E-01  7.20000000E-01  7.20000000E-01  8.50000000E-01  7.20000000E-01
  7.20000000E-01  7.20000000E-01  7.20000000E-01  8.50000000E-01  7.20000000E-01
  7.20000000E-01  7.20000000E-01  7.20000000E-01  7.20000000E-01  8.50000000E-01
  7.20000000E-01  8.50000000E-01  7.20000000E-01  7.20000000E-01  7.20000000E-01
  7.20000000E-01  8.50000000E-01  8.50000000E-01  8.50000000E-01  8.50000000E-01
  8.50000000E-01  8.50000000E-01  7.90000000E-01  7.20000000E-01  7.20000000E-01
  7.20000000E-01  7.90000000E-01  7.20000000E-01  7.20000000E-01  7.20000000E-01
  8.50000000E-01  7.90000000E-01  7.20000000E-01  7.20000000E-01  7.20000000E-01
  7.20000000E-01  7.20000000E-01  7.20000000E-01  8.50000000E-01  7.20000000E-01
  8.50000000E-01  7.20000000E-01  7.20000000E-01  8.50000000E-01  8.50000000E-01
  8.50000000E-01  8.50000000E-01  8.50000000E-01  8.50000000E-01  8.50000000E-01
  8.50000000E-01  8.50000000E-01  8.50000000E-01  8.50000000E-01  8.50000000E-01
  8.50000000E-01  8.50000000E-01  7.20000000E-01  7.20000000E-01  8.50000000E-01
  7.20000000E-01  7.20000000E-01  7.20000000E-01  7.20000000E-01  8.50000000E-01
  7.20000000E-01  7.20000000E-01  7.20000000E-01  7.20000000E-01  7.20000000E-01
  8.50000000E-01  7.20000000E-01  8.50000000E-01  7.20000000E-01  7.20000000E-01
  7.20000000E-01  7.20000000E-01  8.50000000E-01  8.50000000E-01  8.50000000E-01
  8.50000000E-01  8.50000000E-01  8.50000000E-01  7.90000000E-01  7.20000000E-01
  7.20000000E-01  7.20000000E-01  7.20000000E-01  8.50000000E-01  7.20000000E-01
  7.20000000E-01  7.20000000E-01  7.20000000E-01  7.90000000E-01  7.20000000E-01
  7.20000000E-01  7.20000000E-01  7.20000000E-01  8.50000000E-01  8.50000000E-01
  8.50000000E-01  8.50000000E-01  8.50000000E-01  8.50000000E-01  8.50000000E-01
  8.50000000E-01  8.50000000E-01  8.50000000E-01  7.90000000E-01  7.20000000E-01
  7.20000000E-01  7.20000000E-01  7.20000000E-01  8.50000000E-01  7.20000000E-01
  7.20000000E-01  7.20000000E-01  7.20000000E-01  7.90000000E-01  7.20000000E-01
  7.20000000E-01  7.20000000E-01  7.20000000E-01  8.50000000E-01  8.50000000E-01
  8.50000000E-01  8.50000000E-01  8.50000000E-01  8.50000000E-01  8.50000000E-01
  8.50000000E-01  8.50000000E-01  8.50000000E-01  8.50000000E-01  7.20000000E-01
  7.20000000E-01  8.50000000E-01  7.20000000E-01  7.20000000E-01  7.20000000E-01
  7.20000000E-01  8.50000000E-01  7.20000000E-01  7.20000000E-01  7.20000000E-01
  7.20000000E-01  7.20000000E-01  8.50000000E-01  7.20000000E-01  8.50000000E-01
  7.20000000E-01  7.20000000E-01  7.20000000E-01  7.20000000E-01  8.50000000E-01
  8.50000000E-01  8.50000000E-01  8.50000000E-01  8.50000000E-01  8.50000000E-01
  7.90000000E-01  7.20000000E-01  7.20000000E-01  7.20000000E-01  7.90000000E-01
  7.20000000E-01  7.20000000E-01  7.20000000E-01  8.50000000E-01  7.90000000E-01
  7.20000000E-01  7.20000000E-01  7.20000000E-01  7.20000000E-01  7.20000000E-01
  7.20000000E-01  8.50000000E-01  7.20000000E-01  8.50000000E-01  7.20000000E-01
  7.20000000E-01  8.50000000E-01  8.50000000E-01  8.50000000E-01  8.50000000E-01
  8.50000000E-01  8.50000000E-01  8.50000000E-01  8.50000000E-01  8.50000000E-01
  8.50000000E-01  8.50000000E-01  8.50000000E-01  8.50000000E-01  8.50000000E-01
  7.20000000E-01  7.20000000E-01  8.50000000E-01  7.20000000E-01  7.20000000E-01
  7.20000000E-01  7.20000000E-01  8.50000000E-01  7.20000000E-01  7.20000000E-01
  7.20000000E-01  7.20000000E-01  7.20000000E-01  8.50000000E-01  7.20000000E-01
  8.50000000E-01  7.20000000E-01  7.20000000E-01  7.20000000E-01  7.20000000E-01
  8.50000000E-01  8.50000000E-01  8.50000000E-01  8.50000000E-01  8.50000000E-01
  8.50000000E-01  7.90000000E-01  7.20000000E-01  7.20000000E-01  7.20000000E-01
  7.20000000E-01  8.50000000E-01  7.20000000E-01  7.20000000E-01  7.20000000E-01
  7.20000000E-01  7.90000000E-01  7.20000000E-01  7.20000000E-01  7.20000000E-01
  7.20000000E-01  8.50000000E-01  8.50000000E-01  8.50000000E-01  8.50000000E-01
  8.50000000E-01  8.50000000E-01  8.50000000E-01  8.50000000E-01  8.50000000E-01
  7.20000000E-01  7.20000000E-01  8.50000000E-01  7.20000000E-01  7.20000000E-01
  7.20000000E-01  7.20000000E-01  8.50000000E-01  7.20000000E-01  7.20000000E-01
  7.20000000E-01  7.20000000E-01  7.20000000E-01  8.50000000E-01  7.20000000E-01
  8.50000000E-01  7.20000000E-01  7.20000000E-01  7.20000000E-01  7.20000000E-01
  8.50000000E-01  8.50000000E-01  8.50000000E-01  8.50000000E-01  8.50000000E-01
  8.50000000E-01  7.90000000E-01  7.20000000E-01  7.20000000E-01  7.20000000E-01
  7.20000000E-01  8.50000000E-01  7.20000000E-01  7.20000000E-01  7.20000000E-01
  7.20000000E-01  7.90000000E-01  7.20000000E-01  7.20000000E-01  7.20000000E-01
  7.20000000E-01  8.50000000E-01  8.50000000E-01  8.50000000E-01  8.50000000E-01
  8.50000000E-01  8.50000000E-01  8.50000000E-01  8.50000000E-01  8.50000000E-01
  7.20000000E-01  7.20000000E-01  8.50000000E-01  7.20000000E-01  7.20000000E-01
  7.20000000E-01  7.20000000E-01  8.50000000E-01  7.20000000E-01  7.20000000E-01
  7.20000000E-01  7.20000000E-01  7.20000000E-01  8.50000000E-01  7.20000000E-01
  8.50000000E-01  7.20000000E-01  7.20000000E-01  7.20000000E-01  7.20000000E-01
  8.50000000E-01  8.50000000E-01  8.50000000E-01  8.50000000E-01  8.50000000E-01
  8.50000000E-01  7.90000000E-01  7.20000000E-01  7.20000000E-01  7.20000000E-01
  7.20000000E-01  8.50000000E-01  7.20000000E-01  7.20000000E-01  7.20000000E-01
  7.20000000E-01  7.90000000E-01  7.20000000E-01  7.20000000E-01  7.20000000E-01
  7.20000000E-01  8.50000000E-01  8.50000000E-01  8.50000000E-01  8.50000000E-01
  8.50000000E-01  8.50000000E-01  8.50000000E-01  8.50000000E-01  8.50000000E-01
  7.20000000E-01  7.20000000E-01  8.50000000E-01  7.20000000E-01  7.20000000E-01
  7.20000000E-01  7.20000000E-01  8.50000000E-01  7.20000000E-01  7.20000000E-01
  7.20000000E-01  7.20000000E-01  7.20000000E-01  8.50000000E-01  7.20000000E-01
  8.50000000E-01  7.20000000E-01  7.20000000E-01  7.20000000E-01  7.20000000E-01
  8.50000000E-01  8.50000000E-01  8.50000000E-01  8.50000000E-01  8.50000000E-01
  8.50000000E-01  7.90000000E-01  7.20000000E-01  7.20000000E-01  7.20000000E-01
  7.20000000E-01  8.50000000E-01  7.20000000E-01  7.20000000E-01  7.20000000E-01
  7.20000000E-01  7.90000000E-01  7.20000000E-01  7.20000000E-01  7.20000000E-01
  7.20000000E-01  8.50000000E-01  8.50000000E-01  8.50000000E-01  8.50000000E-01
  8.50000000E-01  8.50000000E-01  8.50000000E-01  8.50000000E-01  8.50000000E-01
  7.20000000E-01  7.20000000E-01  8.50000000E-01  7.20000000E-01  7.20000000E-01
  7.20000000E-01  7.20000000E-01  8.50000000E-01  7.20000000E-01  7.20000000E-01
  7.20000000E-01  7.20000000E-01  7.20000000E-01  8.50000000E-01  7.20000000E-01
  8.50000000E-01  7.20000000E-01  7.20000000E-01  7.20000000E-01  7.20000000E-01
  8.50000000E-01  8.50000000E-01  8.50000000E-01  8.50000000E-01  8.50000000E-01
  8.50000000E-01  7.90000000E-01  7.20000000E-01  7.20000000E-01  7.20000000E-01
  7.20000000E-01  8.50000000E-01  7.20000000E-01  7.20000000E-01  7.20000000E-01
  7.20000000E-01  7.90000000E-01  7.20000000E-01  7.20000000E-01  7.20000000E-01
  7.20000000E-01  8.50000000E-01  8.50000000E-01  8.50000000E-01  8.50000000E-01
  8.50000000E-01  8.50000000E-01  8.50000000E-01  8.50000000E-01  8.50000000E-01
  7.20000000E-01  7.20000000E-01  8.50000000E-01  7.20000000E-01  7.20000000E-01
  7.20000000E-01  7.20000000E-01  8.50000000E-01  7.20000000E-01  7.20000000E-01
  7.20000000E-01  7.20000000E-01  7.20000000E-01  8.50000000E-01  7.20000000E-01
  8.50000000E-01  7.20000000E-01  7.20000000E-01  7.20000000E-01  7.20000000E-01
  8.50000000E-01  8.50000000E-01  8.50000000E-01  8.50000000E-01  8.50000000E-01
  8.50000000E-01  7.90000000E-01  7.20000000E-01  7.20000000E-01  7.20000000E-01
  7.90000000E-01  7.20000000E-01  7.20000000E-01  7.20000000E-01  8.50000000E-01
  7.90000000E-01  7.20000000E-01  7.20000000E-01  7.20000000E-01  7.20000000E-01
  7.20000000E-01  7.20000000E-01  8.50000000E-01  7.20000000E-01  8.50000000E-01
  7.20000000E-01  7.20000000E-01  8.50000000E-01  8.50000000E-01  8.50000000E-01
  8.50000000E-01  8.50000000E-01  8.50000000E-01  8.50000000E-01  8.50000000E-01
  8.50000000E-01  8.50000000E-01  8.50000000E-01  8.50000000E-01  8.50000000E-01
  8.50000000E-01  7.20000000E-01  7.20000000E-01  8.50000000E-01  7.20000000E-01
  7.20000000E-01  7.20000000E-01  7.20000000E-01  8.50000000E-01  7.20000000E-01
  7.20000000E-01  7.20000000E-01  7.20000000E-01  7.20000000E-01  8.50000000E-01
  7.20000000E-01  8.50000000E-01  7.20000000E-01  7.20000000E-01  7.20000000E-01
  7.20000000E-01  8.50000000E-01  8.50000000E-01  8.50000000E-01  8.50000000E-01
  8.50000000E-01  8.50000000E-01  7.90000000E-01  7.20000000E-01  7.20000000E-01
  7.20000000E-01  7.20000000E-01  8.50000000E-01  7.20000000E-01  7.20000000E-01
  7.20000000E-01  7.20000000E-01  7.90000000E-01  7.20000000E-01  7.20000000E-01
  7.20000000E-01  7.20000000E-01  8.50000000E-01  8.50000000E-01  8.50000000E-01
  8.50000000E-01  8.50000000E-01  8.50000000E-01  8.50000000E-01  8.50000000E-01
  8.50000000E-01  8.50000000E-01  7.90000000E-01  7.20000000E-01  7.20000000E-01
  7.20000000E-01  7.20000000E-01  8.50000000E-01  7.20000000E-01  7.20000000E-01
  7.20000000E-01  7.20000000E-01  7.90000000E-01  7.20000000E-01  7.20000000E-01
  7.20000000E-01  7.20000000E-01  8.50000000E-01  8.50000000E-01  8.50000000E-01
  8.50000000E-01  8.50000000E-01  8.50000000E-01  8.50000000E-01  8.50000000E-01
  8.50000000E-01  8.50000000E-01  8.50000000E-01  7.20000000E-01  7.20000000E-01
  8.50000000E-01  7.20000000E-01  7.20000000E-01  7.20000000E-01  7.20000000E-01
  8.50000000E-01  7.20000000E-01  7.20000000E-01  7.20000000E-01  7.20000000E-01
  7.20000000E-01  8.50000000E-01  7.20000000E-01  8.50000000E-01  7.20000000E-01
  7.20000000E-01  7.20000000E-01  7.20000000E-01  8.50000000E-01  8.50000000E-01
  8.50000000E-01  8.50000000E-01  8.50000000E-01  8.50000000E-01  7.90000000E-01
  7.20000000E-01  7.20000000E-01  7.20000000E-01  7.90000000E-01  7.20000000E-01
  7.20000000E-01  7.20000000E-01  8.50000000E-01  7.90000000E-01  7.20000000E-01
  7.20000000E-01  7.20000000E-01  7.20000000E-01  7.20000000E-01  7.20000000E-01
  8.50000000E-01  7.20000000E-01  8.50000000E-01  7.20000000E-01  7.20000000E-01
  8.50000000E-01  8.50000000E-01  8.50000000E-01  8.50000000E-01  8.50000000E-01
  8.50000000E-01  8.50000000E-01  8.50000000E-01  8.50000000E-01  8.50000000E-01
  8.50000000E-01  8.50000000E-01  8.50000000E-01  8.50000000E-01  7.20000000E-01
  7.20000000E-01  8.50000000E-01  7.20000000E-01  7.20000000E-01  7.20000000E-01
  7.20000000E-01  8.50000000E-01  7.20000000E-01  7.20000000E-01  7.20000000E-01
  7.20000000E-01  7.20000000E-01  8.50000000E-01  7.20000000E-01  8.50000000E-01
  7.20000000E-01  7.20000000E-01  7.20000000E-01  7.20000000E-01  8.50000000E-01
  8.50000000E-01  8.50000000E-01  8.50000000E-01  8.50000000E-01  8.50000000E-01
  7.90000000E-01  7.20000000E-01  7.20000000E-01  7.20000000E-01  7.20000000E-01
  8.50000000E-01  7.20000000E-01  7.20000000E-01  7.20000000E-01  7.20000000E-01
  7.90000000E-01  7.20000000E-01  7.20000000E-01  7.20000000E-01  7.20000000E-01
  8.50000000E-01  8.50000000E-01  8.50000000E-01  8.50000000E-01  8.50000000E-01
  8.50000000E-01  8.50000000E-01  8.50000000E-01  8.50000000E-01  7.20000000E-01
  7.20000000E-01  8.50000000E-01  7.20000000E-01  7.20000000E-01  7.20000000E-01
  7.20000000E-01  8.50000000E-01  7.20000000E-01  7.20000000E-01  7.20000000E-01
  7.20000000E-01  7.20000000E-01  8.50000000E-01  7.20000000E-01  8.50000000E-01
  7.20000000E-01  7.20000000E-01  7.20000000E-01  7.20000000E-01  8.50000000E-01
  8.50000000E-01  8.50000000E-01  8.50000000E-01  8.50000000E-01  8.50000000E-01
  7.90000000E-01  7.20000000E-01  7.20000000E-01  7.20000000E-01  7.20000000E-01
  8.50000000E-01  7.20000000E-01  7.20000000E-01  7.20000000E-01  7.20000000E-01
  7.90000000E-01  7.20000000E-01  7.20000000E-01  7.20000000E-01  7.20000000E-01
  8.50000000E-01  8.50000000E-01  8.50000000E-01  8.50000000E-01  8.50000000E-01
  8.50000000E-01  8.50000000E-01  8.50000000E-01  8.50000000E-01  7.20000000E-01
  7.20000000E-01  8.50000000E-01  7.20000000E-01  7.20000000E-01  7.20000000E-01
  7.20000000E-01  8.50000000E-01  7.20000000E-01  7.20000000E-01  7.20000000E-01
  7.20000000E-01  7.20000000E-01  8.50000000E-01  7.20000000E-01  8.50000000E-01
  7.20000000E-01  7.20000000E-01  7.20000000E-01  7.20000000E-01  8.50000000E-01
  8.50000000E-01  8.50000000E-01  8.50000000E-01  8.50000000E-01  8.50000000E-01
  7.90000000E-01  7.20000000E-01  7.20000000E-01  7.20000000E-01  7.20000000E-01
  8.50000000E-01  7.20000000E-01  7.20000000E-01  7.20000000E-01  7.20000000E-01
  7.90000000E-01  7.20000000E-01  7.20000000E-01  7.20000000E-01  7.20000000E-01
  8.50000000E-01  8.50000000E-01  8.50000000E-01  8.50000000E-01  8.50000000E-01
  8.50000000E-01  8.50000000E-01  8.50000000E-01  8.50000000E-01  7.20000000E-01
  7.20000000E-01  8.50000000E-01  7.20000000E-01  7.20000000E-01  7.20000000E-01
  7.20000000E-01  8.50000000E-01  7.20000000E-01  7.20000000E-01  7.20000000E-01
  7.20000000E-01  7.20000000E-01  8.50000000E-01  7.20000000E-01  8.50000000E-01
  7.20000000E-01  7.20000000E-01  7.20000000E-01  7.20000000E-01  8.50000000E-01
  8.50000000E-01  8.50000000E-01  8.50000000E-01  8.50000000E-01  8.50000000E-01
  7.90000000E-01  7.20000000E-01  7.20000000E-01  7.20000000E-01  7.20000000E-01
  8.50000000E-01  7.20000000E-01  7.20000000E-01  7.20000000E-01  7.20000000E-01
  7.90000000E-01  7.20000000E-01  7.20000000E-01  7.20000000E-01  7.20000000E-01
  8.50000000E-01  8.50000000E-01  8.50000000E-01  8.50000000E-01  8.50000000E-01
  8.50000000E-01  8.50000000E-01  8.50000000E-01  8.50000000E-01  7.20000000E-01
  7.20000000E-01  8.50000000E-01  7.20000000E-01  7.20000000E-01  7.20000000E-01
  7.20000000E-01  8.50000000E-01  7.20000000E-01  7.20000000E-01  7.20000000E-01
  7.20000000E-01  7.20000000E-01  8.50000000E-01  7.20000000E-01  8.50000000E-01
  7.20000000E-01  7.20000000E-01  7.20000000E-01  7.20000000E-01  8.50000000E-01
  8.50000000E-01  8.50000000E-01  8.50000000E-01  8.50000000E-01  8.50000000E-01
  7.90000000E-01  7.20000000E-01  7.20000000E-01  7.20000000E-01  7.20000000E-01
  8.50000000E-01  7.20000000E-01  7.20000000E-01  7.20000000E-01  7.20000000E-01
  7.90000000E-01  7.20000000E-01  7.20000000E-01  7.20000000E-01  7.20000000E-01
  8.50000000E-01  8.50000000E-01  8.50000000E-01  8.50000000E-01  8.50000000E-01
  8.50000000E-01  8.50000000E-01  8.50000000E-01  8.50000000E-01  7.20000000E-01
  7.20000000E-01  8.50000000E-01  7.20000000E-01  7.20000000E-01  7.20000000E-01
  7.20000000E-01  8.50000000E-01  7.20000000E-01  7.20000000E-01  7.20000000E-01
  7.20000000E-01  7.20000000E-01  8.50000000E-01  7.20000000E-01  8.50000000E-01
  7.20000000E-01  7.20000000E-01  7.20000000E-01  7.20000000E-01  8.50000000E-01
  8.50000000E-01  8.50000000E-01  8.50000000E-01  8.50000000E-01  8.50000000E-01
  7.90000000E-01  7.20000000E-01  7.20000000E-01  7.20000000E-01  7.90000000E-01
  7.20000000E-01  7.20000000E-01  7.20000000E-01  8.50000000E-01  7.90000000E-01
  7.20000000E-01  7.20000000E-01  7.20000000E-01  7.20000000E-01  7.20000000E-01
  7.20000000E-01  8.50000000E-01  7.20000000E-01  8.50000000E-01  7.20000000E-01
  7.20000000E-01  8.50000000E-01  8.50000000E-01  8.50000000E-01  8.50000000E-01
  8.50000000E-01  8.50000000E-01  8.50000000E-01  8.50000000E-01  8.50000000E-01
  8.50000000E-01  8.50000000E-01  8.50000000E-01  8.50000000E-01  8.50000000E-01
  7.20000000E-01  7.20000000E-01  8.50000000E-01  7.20000000E-01  7.20000000E-01
  7.20000000E-01  7.20000000E-01  8.50000000E-01  7.20000000E-01  7.20000000E-01
  7.20000000E-01  7.20000000E-01  7.20000000E-01  8.50000000E-01  7.20000000E-01
  8.50000000E-01  7.20000000E-01  7.20000000E-01  7.20000000E-01  7.20000000E-01
  8.50000000E-01  8.50000000E-01  8.50000000E-01  8.50000000E-01  8.50000000E-01
  8.50000000E-01  7.90000000E-01  7.20000000E-01  7.20000000E-01  7.20000000E-01
  7.20000000E-01  8.50000000E-01  7.20000000E-01  7.20000000E-01  7.20000000E-01
  7.20000000E-01  7.90000000E-01  7.20000000E-01  7.20000000E-01  7.20000000E-01
  7.20000000E-01  8.50000000E-01  8.50000000E-01  8.50000000E-01  8.50000000E-01
  8.50000000E-01  8.50000000E-01  8.50000000E-01  8.50000000E-01  8.50000000E-01
  8.50000000E-01  7.90000000E-01  7.20000000E-01  7.20000000E-01  7.20000000E-01
  7.20000000E-01  8.50000000E-01  7.20000000E-01  7.20000000E-01  7.20000000E-01
  7.20000000E-01  7.90000000E-01  7.20000000E-01  7.20000000E-01  7.20000000E-01
  7.20000000E-01  8.50000000E-01  8.50000000E-01  8.50000000E-01  8.50000000E-01
  8.50000000E-01  8.50000000E-01  8.50000000E-01  8.50000000E-01  8.50000000E-01
  8.50000000E-01  8.50000000E-01  7.20000000E-01  7.20000000E-01  8.50000000E-01
  7.20000000E-01  7.20000000E-01  7.20000000E-01  7.20000000E-01  8.50000000E-01
  7.20000000E-01  7.20000000E-01  7.20000000E-01  7.20000000E-01  7.20000000E-01
  8.50000000E-01  7.20000000E-01  8.50000000E-01  7.20000000E-01  7.20000000E-01
  7.20000000E-01  7.20000000E-01  8.50000000E-01  8.50000000E-01  8.50000000E-01
  8.50000000E-01  8.50000000E-01  8.50000000E-01  7.90000000E-01  7.20000000E-01
  7.20000000E-01  7.20000000E-01  7.90000000E-01  7.20000000E-01  7.20000000E-01
  7.20000000E-01  8.50000000E-01  7.90000000E-01  7.20000000E-01  7.20000000E-01
  7.20000000E-01  7.20000000E-01  7.20000000E-01  7.20000000E-01  8.50000000E-01
  7.20000000E-01  8.50000000E-01  7.20000000E-01  7.20000000E-01  8.50000000E-01
  8.50000000E-01  8.50000000E-01  8.50000000E-01  8.50000000E-01  8.50000000E-01
  8.50000000E-01  8.50000000E-01  8.50000000E-01  8.50000000E-01  8.50000000E-01
  8.50000000E-01  8.50000000E-01  8.50000000E-01  7.20000000E-01  7.20000000E-01
  8.50000000E-01  7.20000000E-01  7.20000000E-01  7.20000000E-01  7.20000000E-01
  8.50000000E-01  7.20000000E-01  7.20000000E-01  7.20000000E-01  7.20000000E-01
  7.20000000E-01  8.50000000E-01  7.20000000E-01  8.50000000E-01  7.20000000E-01
  7.20000000E-01  7.20000000E-01  7.20000000E-01  8.50000000E-01  8.50000000E-01
  8.50000000E-01  8.50000000E-01  8.50000000E-01  8.50000000E-01  7.90000000E-01
  7.20000000E-01  7.20000000E-01  7.20000000E-01  7.20000000E-01  8.50000000E-01
  7.20000000E-01  7.20000000E-01  7.20000000E-01  7.20000000E-01  7.90000000E-01
  7.20000000E-01  7.20000000E-01  7.20000000E-01  7.20000000E-01  8.50000000E-01
  8.50000000E-01  8.50000000E-01  8.50000000E-01  8.50000000E-01  8.50000000E-01
  8.50000000E-01  8.50000000E-01  8.50000000E-01  7.20000000E-01  7.20000000E-01
  8.50000000E-01  7.20000000E-01  7.20000000E-01  7.20000000E-01  7.20000000E-01
  8.50000000E-01  7.20000000E-01  7.20000000E-01  7.20000000E-01  7.20000000E-01
  7.20000000E-01  8.50000000E-01  7.20000000E-01  8.50000000E-01  7.20000000E-01
  7.20000000E-01  7.20000000E-01  7.20000000E-01  8.50000000E-01  8.50000000E-01
  8.50000000E-01  8.50000000E-01  8.50000000E-01  8.50000000E-01  7.90000000E-01
  7.20000000E-01  7.20000000E-01  7.20000000E-01  7.20000000E-01  8.50000000E-01
  7.20000000E-01  7.20000000E-01  7.20000000E-01  7.20000000E-01  7.90000000E-01
  7.20000000E-01  7.20000000E-01  7.20000000E-01  7.20000000E-01  8.50000000E-01
  8.50000000E-01  8.50000000E-01  8.50000000E-01  8.50000000E-01  8.50000000E-01
  8.50000000E-01  8.50000000E-01  8.50000000E-01  7.20000000E-01  7.20000000E-01
  8.50000000E-01  7.20000000E-01  7.20000000E-01  7.20000000E-01  7.20000000E-01
  8.50000000E-01  7.20000000E-01  7.20000000E-01  7.20000000E-01  7.20000000E-01
  7.20000000E-01  8.50000000E-01  7.20000000E-01  8.50000000E-01  7.20000000E-01
  7.20000000E-01  7.20000000E-01  7.20000000E-01  8.50000000E-01  8.50000000E-01
  8.50000000E-01  8.50000000E-01  8.50000000E-01  8.50000000E-01  7.90000000E-01
  7.20000000E-01  7.20000000E-01  7.20000000E-01  7.20000000E-01  8.50000000E-01
  7.20000000E-01  7.20000000E-01  7.20000000E-01  7.20000000E-01  7.90000000E-01
  7.20000000E-01  7.20000000E-01  7.20000000E-01  7.20000000E-01  8.50000000E-01
  8.50000000E-01  8.50000000E-01  8.50000000E-01  8.50000000E-01  8.50000000E-01
  8.50000000E-01  8.50000000E-01  8.50000000E-01  7.20000000E-01  7.20000000E-01
  8.50000000E-01  7.20000000E-01  7.20000000E-01  7.20000000E-01  7.20000000E-01
  8.50000000E-01  7.20000000E-01  7.20000000E-01  7.20000000E-01  7.20000000E-01
  7.20000000E-01  8.50000000E-01  7.20000000E-01  8.50000000E-01  7.20000000E-01
  7.20000000E-01  7.20000000E-01  7.20000000E-01  8.50000000E-01  8.50000000E-01
  8.50000000E-01  8.50000000E-01  8.50000000E-01  8.50000000E-01  7.90000000E-01
  7.20000000E-01  7.20000000E-01  7.20000000E-01  7.20000000E-01  8.50000000E-01
  7.20000000E-01  7.20000000E-01  7.20000000E-01  7.20000000E-01  7.90000000E-01
  7.20000000E-01  7.20000000E-01  7.20000000E-01  7.20000000E-01  8.50000000E-01
  8.50000000E-01  8.50000000E-01  8.50000000E-01  8.50000000E-01  8.50000000E-01
  8.50000000E-01  8.50000000E-01  8.50000000E-01  7.20000000E-01  7.20000000E-01
  8.50000000E-01  7.20000000E-01  7.20000000E-01  7.20000000E-01  7.20000000E-01
  8.50000000E-01  7.20000000E-01  7.20000000E-01  7.20000000E-01  7.20000000E-01
  7.20000000E-01  8.50000000E-01  7.20000000E-01  8.50000000E-01  7.20000000E-01
  7.20000000E-01  7.20000000E-01  7.20000000E-01  8.50000000E-01  8.50000000E-01
  8.50000000E-01  8.50000000E-01  8.50000000E-01  8.50000000E-01  7.90000000E-01
  7.20000000E-01  7.20000000E-01  7.20000000E-01  7.20000000E-01  8.50000000E-01
  7.20000000E-01  7.20000000E-01  7.20000000E-01  7.20000000E-01  7.90000000E-01
  7.20000000E-01  7.20000000E-01  7.20000000E-01  7.20000000E-01  8.50000000E-01
  8.50000000E-01  8.50000000E-01  8.50000000E-01  8.50000000E-01  8.50000000E-01
  8.50000000E-01  8.50000000E-01  8.50000000E-01  7.20000000E-01  7.20000000E-01
  8.50000000E-01  7.20000000E-01  7.20000000E-01  7.20000000E-01  7.20000000E-01
  8.50000000E-01  7.20000000E-01  7.20000000E-01  7.20000000E-01  7.20000000E-01
  7.20000000E-01  8.50000000E-01  7.20000000E-01  8.50000000E-01  7.20000000E-01
  7.20000000E-01  7.20000000E-01  7.20000000E-01  8.50000000E-01  8.50000000E-01
  8.50000000E-01  8.50000000E-01  8.50000000E-01  8.50000000E-01  7.90000000E-01
  7.20000000E-01  7.20000000E-01  7.20000000E-01  7.90000000E-01  7.20000000E-01
  7.20000000E-01  7.20000000E-01  8.50000000E-01  7.90000000E-01  7.20000000E-01
  7.20000000E-01  7.20000000E-01  7.20000000E-01  7.20000000E-01  7.20000000E-01
  8.50000000E-01  7.20000000E-01  8.50000000E-01  7.20000000E-01  7.20000000E-01
  8.50000000E-01  8.50000000E-01  8.50000000E-01  8.50000000E-01  8.50000000E-01
  8.50000000E-01  8.50000000E-01  8.50000000E-01  8.50000000E-01  8.50000000E-01
  8.50000000E-01  8.50000000E-01  8.50000000E-01  8.50000000E-01  7.20000000E-01
  7.20000000E-01  8.50000000E-01  7.20000000E-01  7.20000000E-01  7.20000000E-01
  7.20000000E-01  8.50000000E-01  7.20000000E-01  7.20000000E-01  7.20000000E-01
  7.20000000E-01  7.20000000E-01  8.50000000E-01  7.20000000E-01  8.50000000E-01
  7.20000000E-01  7.20000000E-01  7.20000000E-01  7.20000000E-01  8.50000000E-01
  8.50000000E-01  8.50000000E-01  8.50000000E-01  8.50000000E-01  8.50000000E-01
  7.90000000E-01  7.20000000E-01  7.20000000E-01  7.20000000E-01  7.20000000E-01
  8.50000000E-01  7.20000000E-01  7.20000000E-01  7.20000000E-01  7.20000000E-01
  7.90000000E-01  7.20000000E-01  7.20000000E-01  7.20000000E-01  7.20000000E-01
  8.50000000E-01  8.50000000E-01  8.50000000E-01  8.50000000E-01  8.50000000E-01
  8.50000000E-01  8.50000000E-01  8.50000000E-01  8.50000000E-01  8.50000000E-01
  7.90000000E-01  7.20000000E-01  7.20000000E-01  7.20000000E-01  7.20000000E-01
  8.50000000E-01  7.20000000E-01  7.20000000E-01  7.20000000E-01  7.20000000E-01
  7.90000000E-01  7.20000000E-01  7.20000000E-01  7.20000000E-01  7.20000000E-01
  8.50000000E-01  8.50000000E-01  8.50000000E-01  8.50000000E-01  8.50000000E-01
  8.50000000E-01  8.50000000E-01  8.50000000E-01  8.50000000E-01  8.50000000E-01
  8.50000000E-01  7.20000000E-01  7.20000000E-01  8.50000000E-01  7.20000000E-01
  7.20000000E-01  7.20000000E-01  7.20000000E-01  8.50000000E-01  7.20000000E-01
  7.20000000E-01  7.20000000E-01  7.20000000E-01  7.20000000E-01  8.50000000E-01
  7.20000000E-01  8.50000000E-01  7.20000000E-01  7.20000000E-01  7.20000000E-01
  7.20000000E-01  8.50000000E-01  8.50000000E-01  8.50000000E-01  8.50000000E-01
  8.50000000E-01  8.50000000E-01  7.90000000E-01  7.20000000E-01  7.20000000E-01
  7.20000000E-01  7.90000000E-01  7.20000000E-01  7.20000000E-01  7.20000000E-01
  8.50000000E-01  7.90000000E-01  7.20000000E-01  7.20000000E-01  7.20000000E-01
  7.20000000E-01  7.20000000E-01  7.20000000E-01  8.50000000E-01  7.20000000E-01
  8.50000000E-01  7.20000000E-01  7.20000000E-01  8.50000000E-01  8.50000000E-01
  8.50000000E-01  8.50000000E-01  8.50000000E-01  8.50000000E-01  8.50000000E-01
  8.50000000E-01  8.50000000E-01  8.50000000E-01  8.50000000E-01  8.50000000E-01
  8.50000000E-01  8.50000000E-01  7.20000000E-01  7.20000000E-01  8.50000000E-01
  7.20000000E-01  7.20000000E-01  7.20000000E-01  7.20000000E-01  8.50000000E-01
  7.20000000E-01  7.20000000E-01  7.20000000E-01  7.20000000E-01  7.20000000E-01
  8.50000000E-01  7.20000000E-01  8.50000000E-01  7.20000000E-01  7.20000000E-01
  7.20000000E-01  7.20000000E-01  8.50000000E-01  8.50000000E-01  8.50000000E-01
  8.50000000E-01  8.50000000E-01  8.50000000E-01  7.90000000E-01  7.20000000E-01
  7.20000000E-01  7.20000000E-01  7.20000000E-01  8.50000000E-01  7.20000000E-01
  7.20000000E-01  7.20000000E-01  7.20000000E-01  7.90000000E-01  7.20000000E-01
  7.20000000E-01  7.20000000E-01  7.20000000E-01  8.50000000E-01  8.50000000E-01
  8.50000000E-01  8.50000000E-01  8.50000000E-01  8.50000000E-01  8.50000000E-01
  8.50000000E-01  8.50000000E-01  7.20000000E-01  7.20000000E-01  8.50000000E-01
  7.20000000E-01  7.20000000E-01  7.20000000E-01  7.20000000E-01  8.50000000E-01
  7.20000000E-01  7.20000000E-01  7.20000000E-01  7.20000000E-01  7.20000000E-01
  8.50000000E-01  7.20000000E-01  8.50000000E-01  7.20000000E-01  7.20000000E-01
  7.20000000E-01  7.20000000E-01  8.50000000E-01  8.50000000E-01  8.50000000E-01
  8.50000000E-01  8.50000000E-01  8.50000000E-01  7.90000000E-01  7.20000000E-01
  7.20000000E-01  7.20000000E-01  7.20000000E-01  8.50000000E-01  7.20000000E-01
  7.20000000E-01  7.20000000E-01  7.20000000E-01  7.90000000E-01  7.20000000E-01
  7.20000000E-01  7.20000000E-01  7.20000000E-01  8.50000000E-01  8.50000000E-01
  8.50000000E-01  8.50000000E-01  8.50000000E-01  8.50000000E-01  8.50000000E-01
  8.50000000E-01  8.50000000E-01  7.20000000E-01  7.20000000E-01  8.50000000E-01
  7.20000000E-01  7.20000000E-01  7.20000000E-01  7.20000000E-01  8.50000000E-01
  7.20000000E-01  7.20000000E-01  7.20000000E-01  7.20000000E-01  7.20000000E-01
  8.50000000E-01  7.20000000E-01  8.50000000E-01  7.20000000E-01  7.20000000E-01
  7.20000000E-01  7.20000000E-01  8.50000000E-01  8.50000000E-01  8.50000000E-01
  8.50000000E-01  8.50000000E-01  8.50000000E-01  7.90000000E-01  7.20000000E-01
  7.20000000E-01  7.20000000E-01  7.20000000E-01  8.50000000E-01  7.20000000E-01
  7.20000000E-01  7.20000000E-01  7.20000000E-01  7.90000000E-01  7.20000000E-01
  7.20000000E-01  7.20000000E-01  7.20000000E-01  8.50000000E-01  8.50000000E-01
  8.50000000E-01  8.50000000E-01  8.50000000E-01  8.50000000E-01  8.50000000E-01
  8.50000000E-01  8.50000000E-01  7.20000000E-01  7.20000000E-01  8.50000000E-01
  7.20000000E-01  7.20000000E-01  7.20000000E-01  7.20000000E-01  8.50000000E-01
  7.20000000E-01  7.20000000E-01  7.20000000E-01  7.20000000E-01  7.20000000E-01
  8.50000000E-01  7.20000000E-01  8.50000000E-01  7.20000000E-01  7.20000000E-01
  7.20000000E-01  7.20000000E-01  8.50000000E-01  8.50000000E-01  8.50000000E-01
  8.50000000E-01  8.50000000E-01  8.50000000E-01  7.90000000E-01  7.20000000E-01
  7.20000000E-01  7.20000000E-01  7.20000000E-01  8.50000000E-01  7.20000000E-01
  7.20000000E-01  7.20000000E-01  7.20000000E-01  7.90000000E-01  7.20000000E-01
  7.20000000E-01  7.20000000E-01  7.20000000E-01  8.50000000E-01  8.50000000E-01
  8.50000000E-01  8.50000000E-01  8.50000000E-01  8.50000000E-01  8.50000000E-01
  8.50000000E-01  8.50000000E-01  7.20000000E-01  7.20000000E-01  8.50000000E-01
  7.20000000E-01  7.20000000E-01  7.20000000E-01  7.20000000E-01  8.50000000E-01
  7.20000000E-01  7.20000000E-01  7.20000000E-01  7.20000000E-01  7.20000000E-01
  8.50000000E-01  7.20000000E-01  8.50000000E-01  7.20000000E-01  7.20000000E-01
  7.20000000E-01  7.20000000E-01  8.50000000E-01  8.50000000E-01  8.50000000E-01
  8.50000000E-01  8.50000000E-01  8.50000000E-01  7.90000000E-01  7.20000000E-01
  7.20000000E-01  7.20000000E-01  7.20000000E-01  8.50000000E-01  7.20000000E-01
  7.20000000E-01  7.20000000E-01  7.20000000E-01  7.90000000E-01  7.20000000E-01
  7.20000000E-01  7.20000000E-01  7.20000000E-01  8.50000000E-01  8.50000000E-01
  8.50000000E-01  8.50000000E-01  8.50000000E-01  8.50000000E-01  8.50000000E-01
  8.50000000E-01  8.50000000E-01  7.20000000E-01  7.20000000E-01  8.50000000E-01
  7.20000000E-01  7.20000000E-01  7.20000000E-01  7.20000000E-01  8.50000000E-01
  7.20000000E-01  7.20000000E-01  7.20000000E-01  7.20000000E-01  7.20000000E-01
  8.50000000E-01  7.20000000E-01  8.50000000E-01  7.20000000E-01  7.20000000E-01
  7.20000000E-01  7.20000000E-01  8.50000000E-01  8.50000000E-01  8.50000000E-01
  8.50000000E-01  8.50000000E-01  8.50000000E-01  7.90000000E-01  7.20000000E-01
  7.20000000E-01  7.20000000E-01  7.90000000E-01  7.20000000E-01  7.20000000E-01
  7.20000000E-01  8.50000000E-01  7.90000000E-01  7.20000000E-01  7.20000000E-01
  7.20000000E-01  7.20000000E-01  7.20000000E-01  7.20000000E-01  8.50000000E-01
  7.20000000E-01  8.50000000E-01  7.20000000E-01  7.20000000E-01  8.50000000E-01
  8.50000000E-01  8.50000000E-01  8.50000000E-01  8.50000000E-01  8.50000000E-01
  8.50000000E-01  8.50000000E-01  8.50000000E-01  8.50000000E-01  8.50000000E-01
  8.50000000E-01  8.50000000E-01  8.50000000E-01  7.20000000E-01  7.20000000E-01
  8.50000000E-01  7.20000000E-01  7.20000000E-01  7.20000000E-01  7.20000000E-01
  8.50000000E-01  7.20000000E-01  7.20000000E-01  7.20000000E-01  7.20000000E-01
  7.20000000E-01  8.50000000E-01  7.20000000E-01  8.50000000E-01  7.20000000E-01
  7.20000000E-01  7.20000000E-01  7.20000000E-01  8.50000000E-01  8.50000000E-01
  8.50000000E-01  8.50000000E-01  8.50000000E-01  8.50000000E-01  7.90000000E-01
  7.20000000E-01  7.20000000E-01  7.20000000E-01  7.20000000E-01  8.50000000E-01
  7.20000000E-01  7.20000000E-01  7.20000000E-01  7.20000000E-01  7.90000000E-01
  7.20000000E-01  7.20000000E-01  7.20000000E-01  7.20000000E-01  8.50000000E-01
  8.50000000E-01  8.50000000E-01  8.50000000E-01  8.50000000E-01  8.50000000E-01
  8.50000000E-01  8.50000000E-01  8.50000000E-01  8.50000000E-01
%FLAG IPOL                                                                      
%FORMAT(1I8)                                                                    
       0
